
                                 *****************
                                 * O   R   C   A *
                                 *****************

           --- An Ab Initio, DFT and Semiempirical electronic structure package ---

                  #######################################################
                  #                        -***-                        #
                  #  Department of molecular theory and spectroscopy    #
                  #              Directorship: Frank Neese              #
                  # Max Planck Institute for Chemical Energy Conversion #
                  #                  D-45470 Muelheim/Ruhr              #
                  #                       Germany                       #
                  #                                                     #
                  #                  All rights reserved                #
                  #                        -***-                        #
                  #######################################################


                         Program Version 4.0.1.2 - RELEASE -


 With contributions from (in alphabetic order):
   Daniel Aravena         : Magnetic Properties
   Michael Atanasov       : Ab Initio Ligand Field Theory
   Ute Becker             : Parallelization
   Martin Brehm           : Molecular dynamics
   Dmytro Bykov           : SCF Hessian
   Vijay G. Chilkuri      : MRCI spin determinant printing
   Dipayan Datta          : RHF DLPNO-CCSD density
   Achintya Kumar Dutta   : EOM-CC, STEOM-CC
   Dmitry Ganyushin       : Spin-Orbit,Spin-Spin,Magnetic field MRCI
   Yang Guo               : DLPNO-NEVPT2, CIM, IAO-localization
   Andreas Hansen         : Spin unrestricted coupled pair/coupled cluster methods
   Lee Huntington         : MR-EOM, pCC
   Robert Izsak           : Overlap fitted RIJCOSX, COSX-SCS-MP3, EOM
   Christian Kollmar      : KDIIS, OOCD, Brueckner-CCSD(T), CCSD density
   Simone Kossmann        : Meta GGA functionals, TD-DFT gradient, OOMP2, MP2 Hessian
   Martin Krupicka        : AUTO-CI
   Dagmar Lenk            : GEPOL surface
   Dimitrios Liakos       : Extrapolation schemes; parallel MDCI
   Dimitrios Manganas     : ROCIS; embedding schemes
   Dimitrios Pantazis     : SARC Basis sets
   Taras Petrenko         : DFT Hessian,TD-DFT gradient, ASA, ECA, R-Raman, ABS, FL, XAS/XES, NRVS
   Peter Pinski           : DLPNO-MP2
   Christoph Reimann      : Effective Core Potentials
   Marius Retegan         : Local ZFS, SOC
   Christoph Riplinger    : Optimizer, TS searches, QM/MM, DLPNO-CCSD(T), (RO)-DLPNO pert. Triples
   Tobias Risthaus        : Range-separated hybrids, TD-DFT gradient, RPA, STAB
   Michael Roemelt        : Restricted open shell CIS
   Masaaki Saitow         : Open-shell DLPNO
   Barbara Sandhoefer     : DKH picture change effects
   Kantharuban Sivalingam : CASSCF convergence, NEVPT2, FIC-MRCI
   Georgi Stoychev        : AutoAux
   Boris Wezisla          : Elementary symmetry handling
   Frank Wennmohs         : Technical directorship


 We gratefully acknowledge several colleagues who have allowed us to
 interface, adapt or use parts of their codes:
   Stefan Grimme, W. Hujo, H. Kruse,             : VdW corrections, initial TS optimization,
                  C. Bannwarth                     DFT functionals, gCP, sTDA/sTD-DF
   Ed Valeev                                     : LibInt (2-el integral package), F12 methods
   Garnet Chan, S. Sharma, J. Yang, R. Olivares  : DMRG
   Ulf Ekstrom                                   : XCFun DFT Library
   Mihaly Kallay                                 : mrcc  (arbitrary order and MRCC methods)
   Andreas Klamt, Michael Diedenhofen            : otool_cosmo (COSMO solvation model)
   Jiri Pittner, Ondrej Demel                    : Mk-CCSD
   Frank Weinhold                                : gennbo (NPA and NBO analysis)
   Christopher J. Cramer and Donald G. Truhlar   : smd solvation model


 Your calculation uses the libint2 library for the computation of 2-el integrals
 For citations please refer to: http://libint.valeyev.net

 This ORCA versions uses:
   CBLAS   interface :  Fast vector & matrix operations
   LAPACKE interface :  Fast linear algebra routines
   SCALAPACK package :  Parallel linear algebra routines


Your calculation utilizes the basis: DKH-def2-TZVP
   Exponents from def2-TZVP [F. Weigend and R. Ahlrichs, Phys. Chem. Chem. Phys. 7, 3297 (2005)],
   recontracted for DKH2 by D. A. Pantazis.

Your calculation utilizes the auxiliary basis: SARC/J 
   decontracted def2/J up to Kr:
   F. Weigend, Phys. Chem. Chem. Phys. 8, 1057 (2006)
   and SARC auxiliary basis sets beyond Kr:
   D. A. Pantazis and F. Neese, J. Chem. Theory Comput. 5, 2229 (2009).
   D. A. Pantazis, X. Y. Chen, C. R. Landis and F. Neese, J. Chem. Theory Comput. 4, 908 (2008).
   D. A. Pantazis and F. Neese, Theor. Chem. Acc. 131, 1292 (2012).
   D. A. Pantazis and F. Neese, J. Chem. Theory Comput. 7, 677 (2011).

================================================================================
                                        WARNINGS
                       Please study these warnings very carefully!
================================================================================

Warning: TCutStore was < 0. Adjusted to Thresh (uncritical)

WARNING: your system is open-shell and RHF/RKS was chosen
  ===> : WILL SWITCH to UHF/UKS


WARNING: In scalar relativistic gradient/hessian runs we need the one-center approximation
  ===> : %rel OneCenter is turned on

WARNING: The frozen-core approximation for MP2-gradient calculations is turned on by default.

WARNING: Geometry Optimization
  ===> : Switching off AutoStart
         For restart on a previous wavefunction, please use MOREAD

WARNING: Post HF methods need fully converged wavefunctions
  ===> : Setting SCFConvForced true
         You can overwrite this default with %scf ConvForced false 


INFO   : the flag for use of LIBINT has been found!

================================================================================
                                       INPUT FILE
================================================================================
NAME = /home/nikolayandreadi_2125/_scratch/MP2/NpF4.inp
|  1> !Opt MP2 DKH-def2-TZVP DKH SARC/J SlowConv
|  2> 
|  3> %pal
|  4> nproc 20
|  5> end
|  6> 
|  7> %maxcore 31500
|  8> 
|  9> %basis
| 10> newgto Np "SARC-DKH-TZVP" end
| 11> end
| 12> 
| 13> %scf
| 14> MaxIter 5000
| 15> Guess HCore
| 16> end
| 17> 
| 18> %method
| 19> Z_MaxIter 5000
| 20> end
| 21> 
| 22> * xyz 0 2
| 23>   Np    -0.008526    0.042895    0.045607
| 24>   F     -0.636449   -1.139660    1.596176
| 25>   F     -0.755292   -0.929503   -1.570016
| 26>   F     -0.624452    1.986266   -0.130595
| 27>   F      2.024720    0.040003    0.058827
| 28> **                         ****END OF INPUT****
================================================================================

                       *****************************
                       * Geometry Optimization Run *
                       *****************************

Geometry optimization settings:
Update method            Update   .... BFGS
Choice of coordinates    CoordSys .... Redundant Internals
Initial Hessian          InHess   .... Almoef's Model

Convergence Tolerances:
Energy Change            TolE     ....  5.0000e-06 Eh
Max. Gradient            TolMAXG  ....  3.0000e-04 Eh/bohr
RMS Gradient             TolRMSG  ....  1.0000e-04 Eh/bohr
Max. Displacement        TolMAXD  ....  4.0000e-03 bohr
RMS Displacement         TolRMSD  ....  2.0000e-03 bohr

------------------------------------------------------------------------------
                        ORCA OPTIMIZATION COORDINATE SETUP
------------------------------------------------------------------------------

The optimization will be done in new redundant internal coordinates
Making redundant internal coordinates   ...  (new redundants) done
Evaluating the initial hessian          ...  (Almloef) done
Evaluating the coordinates              ...  done
Calculating the B-matrix                .... done
Calculating the G-matrix                .... done
Diagonalizing the G-matrix              .... done
The first mode is                       ....    1
The number of degrees of freedom        ....    9

    -----------------------------------------------------------------
                    Redundant Internal Coordinates


    -----------------------------------------------------------------
         Definition                    Initial Value    Approx d2E/dq
    -----------------------------------------------------------------
      1. B(F   1,Np  0)                  2.0487         0.155460   
      2. B(F   2,Np  0)                  2.0282         0.167613   
      3. B(F   3,Np  0)                  2.0462         0.156845   
      4. B(F   4,Np  0)                  2.0333         0.164487   
      5. A(F   1,Np  0,F   3)          121.4081         0.301697   
      6. A(F   2,Np  0,F   3)          106.0169         0.305352   
      7. A(F   1,Np  0,F   4)          107.5030         0.304000   
      8. A(F   2,Np  0,F   4)          111.8814         0.307694   
      9. A(F   3,Np  0,F   4)          107.6323         0.304432   
     10. A(F   1,Np  0,F   2)          102.3165         0.304918   
    -----------------------------------------------------------------

Number of atoms                         .... 5
Number of degrees of freedom            .... 10

         *************************************************************
         *                GEOMETRY OPTIMIZATION CYCLE   1            *
         *************************************************************
---------------------------------
CARTESIAN COORDINATES (ANGSTROEM)
---------------------------------
  Np    -0.008526    0.042895    0.045607
  F     -0.636449   -1.139660    1.596176
  F     -0.755292   -0.929503   -1.570016
  F     -0.624452    1.986266   -0.130595
  F      2.024720    0.040003    0.058827

----------------------------
CARTESIAN COORDINATES (A.U.)
----------------------------
  NO LB      ZA    FRAG     MASS         X           Y           Z
   0 Np   93.0000    0   237.048   -0.016112    0.081060    0.086185
   1 F     9.0000    0    18.998   -1.202714   -2.153645    3.016336
   2 F     9.0000    0    18.998   -1.427295   -1.756506   -2.966900
   3 F     9.0000    0    18.998   -1.180043    3.753499   -0.246789
   4 F     9.0000    0    18.998    3.826166    0.075595    0.111167

--------------------------------
INTERNAL COORDINATES (ANGSTROEM)
--------------------------------
 Np     0   0   0     0.000000000000     0.00000000     0.00000000
 F      1   0   0     2.048655130986     0.00000000     0.00000000
 F      1   2   0     2.028165428975   102.31645079     0.00000000
 F      1   2   3     2.046241145594   121.40813280   117.65983601
 F      1   2   3     2.033291033910   107.50302593   242.04101866

---------------------------
INTERNAL COORDINATES (A.U.)
---------------------------
 Np     0   0   0     0.000000000000     0.00000000     0.00000000
 F      1   0   0     3.871397140416     0.00000000     0.00000000
 F      1   2   0     3.832677215050   102.31645079     0.00000000
 F      1   2   3     3.866835369134   121.40813280   117.65983601
 F      1   2   3     3.842363204648   107.50302593   242.04101866

---------------------
BASIS SET INFORMATION
---------------------
There are 2 groups of distinct atoms

 Group   1 Type Np  : 29s20p16d12f contracted to 21s13p10d7f pattern {911111111111111111111/8111111111111/7111111111/6111111}
 Group   2 Type F   : 11s6p2d1f contracted to 6s3p2d1f pattern {611111/411/11/1}

Atom   0Np   basis set group =>   1
Atom   1F    basis set group =>   2
Atom   2F    basis set group =>   2
Atom   3F    basis set group =>   2
Atom   4F    basis set group =>   2

INFORMATION: There is an auxiliary basis set but the global RI flag is NOT set

-------------------------------
AUXILIARY BASIS SET INFORMATION
-------------------------------
There are 2 groups of distinct atoms

 Group   1 Type Np  : 33s10p8d6f4g2h1i contracted to 33s10p8d6f4g2h1i pattern {111111111111111111111111111111111/1111111111/11111111/111111/1111/11/1}
 Group   2 Type F   : 12s5p4d2f1g contracted to 12s5p4d2f1g pattern {111111111111/11111/1111/11/1}

Atom   0Np   basis set group =>   1
Atom   1F    basis set group =>   2
Atom   2F    basis set group =>   2
Atom   3F    basis set group =>   2
Atom   4F    basis set group =>   2


           ************************************************************
           *        Program running with 20 parallel MPI-processes    *
           *              working on a common directory               *
           ************************************************************
------------------------------------------------------------------------------
                           ORCA GTO INTEGRAL CALCULATION
------------------------------------------------------------------------------

                         BASIS SET STATISTICS AND STARTUP INFO

 # of primitive gaussian shells          ...  157
 # of primitive gaussian functions       ...  437
 # of contracted shells                  ...   99
 # of contracted basis functions         ...  287
 Highest angular momentum                ...    3
 Maximum contraction depth               ...    9
 Integral package used                   ... LIBINT
 Integral threshhold            Thresh   ...  2.500e-11
 Primitive cut-off              TCut     ...  2.500e-12


------------------------------ INTEGRAL EVALUATION ----------------------------


 * One electron integrals 
 Pre-screening matrix                    ... done
 Shell pair data                         ... done (   0.001 sec)

------------------------------------------------------------------------------
                          ORCA RELATIVISTIC HAMILTONIAN
------------------------------------------------------------------------------

Relativistic Method            ... DKH
Order of DKH treatment         ...   2
Treatment of potential         ... V(e,N)
Eps parameter for DKH          ...   0.00000000010000
Nucleus model                  ... Point Nucleus
Speed of light used            ... 137.03598950000000


            ************************************************
            *        DOUGLAS-KROLL-HESS HAMILTONIAN        *
            *   Programmed by FN according to literature   *
            *        procedures. Special thanks to         *
            *       B.A. Hess, M. Reiher and A. Wolf       *
            *     University Erlangen-Nuernberg/Bonn       *
            ************************************************

Uncontracting the basis (first version)        ... done
Number of contracted basis functions           ...  287
Number of uncontracted basis functions         ...  437
Initializing the DKH file                      ... done
One center approximation for DKH is active
Finding unique atoms                      ... 2 atom types
 ATOMIC NUMBER  93
          ... doing integrals          ... Computing the DKH transformation
          ... Transforming V and pVp to p**2 space
          ... First transformation of V and pVp
          ... Second transformation of Veff
          ... Adding kinetic energy
          ... Back transformation of Veff to r-space
          ... Recontracting the H-matrix
          ... Computing the DKH correction to the H-matrix
          ... adding submatrics to 1 actual atoms
 ATOMIC NUMBER   9
          ... doing integrals          ... Computing the DKH transformation
          ... Transforming V and pVp to p**2 space
          ... First transformation of V and pVp
          ... Second transformation of Veff
          ... Adding kinetic energy
          ... Back transformation of Veff to r-space
          ... Recontracting the H-matrix
          ... Computing the DKH correction to the H-matrix
          ... adding submatrics to 4 actual atoms
Storing DKH matrices                           ... done
Getting S**(-1/2)                              ... done
Reading the original H-matrix                  ... done
Adding DKH correction to the H-matrix          ... done
Storing the new modified H-matrix              ... done


           ************************************************************
           *        Program running with 20 parallel MPI-processes    *
           *              working on a common directory               *
           ************************************************************
-------------------------------------------------------------------------------
                                 ORCA SCF
-------------------------------------------------------------------------------

------------
SCF SETTINGS
------------
Hamiltonian:
 Ab initio Hamiltonian  Method          .... Hartree-Fock(GTOs)

Relativistic Settings:
 Scalar relativistic method             .... Douglas-Kroll-Hess
 Order of DKH procedure    Order        ....    2
 Mode of DKH-treatment                  .... V=V(e,N)
 Speed of light used       Velit        ....       137.035989
 Cutoff-constant           Eps          ....            1e-10 


General Settings:
 Integral files         IntName         .... /home/nikolayandreadi_2125/_scratch/MP2/NpF4
 Hartree-Fock type      HFTyp           .... UHF
 Total Charge           Charge          ....    0
 Multiplicity           Mult            ....    2
 Number of Electrons    NEL             ....  129
 Basis Dimension        Dim             ....  287
 Nuclear Repulsion      ENuc            ....    946.3266277366 Eh

Convergence Acceleration:
 DIIS                   CNVDIIS         .... on
   Start iteration      DIISMaxIt       ....     0
   Startup error        DIISStart       ....  0.200000
   # of expansion vecs  DIISMaxEq       ....     5
   Bias factor          DIISBfac        ....   1.050
   Max. coefficient     DIISMaxC        ....  10.000
 Newton-Raphson         CNVNR           .... off
 SOSCF                  CNVSOSCF        .... off
 Level Shifting         CNVShift        .... on
   Level shift para.    LevelShift      ....    0.2500
   Turn off err/grad.   ShiftErr        ....    0.0000
 Zerner damping         CNVZerner       .... off
 Static damping         CNVDamp         .... on
   Fraction old density DampFac         ....    0.8500
   Max. Damping (<1)    DampMax         ....    0.9800
   Min. Damping (>=0)   DampMin         ....    0.0000
   Turn off err/grad.   DampErr         ....    0.0300
 Fernandez-Rico         CNVRico         .... off

SCF Procedure:
 Maximum # iterations   MaxIter         ....  5000
 SCF integral mode      SCFMode         .... Direct
   Integral package                     .... LIBINT
 Reset frequeny         DirectResetFreq ....    20
 Integral Threshold     Thresh          ....  2.500e-11 Eh
 Primitive CutOff       TCut            ....  2.500e-12 Eh

Convergence Tolerance:
 Convergence Check Mode ConvCheckMode   .... Total+1el-Energy
 Convergence forced     ConvForced      .... 1
 Energy Change          TolE            ....  1.000e-08 Eh
 1-El. energy change                    ....  1.000e-05 Eh
 DIIS Error             TolErr          ....  5.000e-07


Diagonalization of the overlap matrix:
Smallest eigenvalue                        ... 4.412e-04
Time for diagonalization                   ...    0.017 sec
Threshold for overlap eigenvalues          ... 1.000e-08
Number of eigenvalues below threshold      ... 0
Time for construction of square roots      ...    0.013 sec
Total time needed                          ...    0.031 sec

--------------------
INITIAL GUESS: HCORE
--------------------
                      -----------------
                      INTIAL GUESS DONE 
                      -----------------
--------------
SCF ITERATIONS
--------------
ITER       Energy         Delta-E        Max-DP      RMS-DP      [F,P]     Damp
               ***  Starting incremental Fock matrix formation  ***
  0 -23424.7516405268   0.00000000000011.44178175  0.11804903 75.0764678 0.8500
  1 -25001.2642937902-1576.512653263431 9.35944554  0.10085391 61.4942123 0.8500
                               ***Turning on DIIS***
  2 -25968.6769825358-967.412688745630 7.94008139  0.08155388 50.4985465 0.8500
  3 -28279.0326551866-2310.355672650789 5.54731713  0.06168968 41.5684347 0.8500
  4 -28266.7709046195  12.261750567137 5.66394941  0.05222106 34.8441024 0.8500
  5 -28414.4774069925-147.706502373039 4.80212019  0.04438424 29.4118117 0.8500
  6 -28516.6479858225-102.170578830006 4.08368820  0.03773630 24.8985235 0.8500
  7 -28429.7196410134  86.928344809134 3.58702275  0.03200525 21.0969790 0.8500
  8 -28656.0526198345-226.332978821054 2.95396075  0.02734545 17.8447817 0.8500
  9 -28731.4187962079 -75.366176373420 2.50011278  0.02322491 15.1205908 0.8500
 10 -28782.9328969444 -51.514100736473 2.12846363  0.01974898 12.8234348 0.8500
 11 -28826.1231335544 -43.190236610069 1.81195000  0.01679219 10.8783574 0.8500
 12 -28863.2252422642 -37.102108709791 1.54189624  0.01427637  9.2287769 0.8500
 13 -28906.6581989768 -43.432956712561 1.30505760  0.01212372  7.8287595 0.8500
 14 -28940.7072350112 -34.049036034394 1.10725339  0.01030111  6.6421197 0.8500
 15 -28967.6940572867 -26.986822275496 0.94123034  0.00875615  5.6354779 0.8500
 16 -28990.4601075882 -22.766050301489 0.80029954  0.00744338  4.7811143 0.8500
 17 -29010.3503599349 -19.890252346737 0.68009193  0.00632677  4.0559401 0.8500
 18 -29027.9743637104 -17.624003775520 0.57749629  0.00537685  3.4404912 0.8500
 19 -29043.1609793672 -15.186615656803 0.49033743  0.00456953  2.9182571 0.8500
               *** Restarting incremental Fock matrix formation ***
                                   *** Resetting DIIS ***
 20 -28982.9745904644  60.186388902803 0.46880803  0.00400551  2.4751536 0.8500
 21 -29038.2219596512 -55.247369186840 0.36339510  0.00331961  2.0440232 0.8500
 22 -29066.7777891911 -28.555829539877 0.29150739  0.00278958  1.7081504 0.8500
 23 -29079.9582346464 -13.180445455233 0.24351584  0.00236439  1.4391881 0.8500
 24 -29088.0354662050  -8.077231558673 0.20684739  0.00200958  1.2179416 0.8500
 25 -29092.1827720179  -4.147305812854 0.17799650  0.00171181  1.0329544 0.8500
 26 -29097.2521774117  -5.069405393813 0.15207389  0.00145676  0.8761667 0.8500
 27 -29102.9324460412  -5.680268629523 0.12889987  0.00123807  0.7430016 0.8500
 28 -29107.8514013942  -4.918955352976 0.10922354  0.00105221  0.6301102 0.8500
 29 -29111.8144056475  -3.963004253288 0.09275351  0.00089467  0.5344226 0.8500
 30 -29115.0195601876  -3.205154540163 0.07895174  0.00076102  0.4532825 0.8500
 31 -29117.7651157483  -2.745555560679 0.06720609  0.00064740  0.3844535 0.8500
 32 -29120.1736125115  -2.408496763146 0.05716287  0.00055073  0.3260692 0.8500
 33 -29122.2583628334  -2.084750321959 0.04860712  0.00046856  0.2765534 0.8500
 34 -29124.0360463759  -1.777683542445 0.04134410  0.00039876  0.2345620 0.8500
 35 -29125.5452272719  -1.509180896021 0.03518293  0.00033949  0.1989503 0.8500
 36 -29126.8318088579  -1.286581586002 0.02995044  0.00028918  0.1687470 0.8500
 37 -29127.9330766159  -1.101267757975 0.02550253  0.00024648  0.1431303 0.8500
 38 -29128.8759450477  -0.942868431855 0.02172165  0.00021026  0.1214037 0.8500
 39 -29129.6818643238  -0.805919276107 0.01850912  0.00017956  0.1029767 0.8500
               *** Restarting incremental Fock matrix formation ***
                                   *** Resetting DIIS ***
 40 -29128.5714181194   1.110446204395 0.01703994  0.00015372  0.0873479 0.8500
 41 -29130.2580580104  -1.686639890962 0.01353539  0.00012903  0.0722897 0.8500
 42 -29131.3392719171  -1.081213906698 0.01102572  0.00010970  0.0604571 0.8500
 43 -29131.8679703602  -0.528698443057 0.00934638  0.00009437  0.0510248 0.8500
 44 -29132.2187205900  -0.350750229874 0.00803939  0.00008172  0.0432574 0.8500
 45 -29132.4310767720  -0.212356181924 0.00699260  0.00007128  0.0367343 0.8500
 46 -29132.6917298944  -0.260653122445 0.00602706  0.00006255  0.0311692 0.8500
 47 -29132.9598715281  -0.268141633678 0.03443114  0.00036875  0.0264367 0.0000
 48 -29134.4545017171  -1.494630188983 0.00473589  0.00005967  0.0070052 0.0000
 49 -29134.4439045030   0.010597214088 0.00506762  0.00006420  0.0068716 0.0000
 50 -29134.4198854629   0.024019040091 0.00873049  0.00011176  0.0066803 0.0000
 51 -29134.4014237795   0.018461683423 0.00954148  0.00012821  0.0061267 0.0000
 52 -29134.4345258713  -0.033102091849 0.00675629  0.00009632  0.0053649 0.0000
 53 -29134.4101258232   0.024400048078 0.00853767  0.00013166  0.0048829 0.0000
 54 -29134.4707582792  -0.060632455970 0.00319325  0.00004338  0.0045490 0.0000
 55 -29134.4203185053   0.050439773891 0.01540819  0.00020363  0.0039285 0.0000
 56 -29134.5630887006  -0.142770195267 0.00188963  0.00002964  0.0037149 0.0000
 57 -29134.4311143796   0.131974320942 0.00993747  0.00011909  0.0028223 0.0000
 58 -29134.4987062373  -0.067591857693 0.00209195  0.00003035  0.0025166 0.0000
 59 -29134.4921659778   0.006540259554 0.00221675  0.00003142  0.0023617 0.0000
               *** Restarting incremental Fock matrix formation ***
                                   *** Resetting DIIS ***
 60 -29134.4769110279   0.015254949874 0.00099497  0.00001359  0.0023181 0.0000
 61 -29134.4780896864  -0.001178658466 0.00128857  0.00001717  0.0023585 0.0000
 62 -29134.4787555718  -0.000665885389 0.00166946  0.00002243  0.0023447 0.0000
 63 -29134.4785562382   0.000199333561 0.00170738  0.00002358  0.0022832 0.0000
 64 -29134.4787342145  -0.000177976326 0.00145822  0.00002119  0.0022122 0.0000
 65 -29134.4785068758   0.000227338707 0.00142775  0.00002203  0.0021614 0.0000
 66 -29134.4786830855  -0.000176209687 0.00146921  0.00002225  0.0020975 0.0000
 67 -29134.4783889310   0.000294154528 0.00185934  0.00002779  0.0020312 0.0000
 68 -29134.4782355516   0.000153379355 0.00167608  0.00002501  0.0019437 0.0000
 69 -29134.4778576653   0.000377886332 0.00287435  0.00004262  0.0018796 0.0000
 70 -29134.4784192294  -0.000561564088 0.00084475  0.00001371  0.0018455 0.0000
 71 -29134.4803097529  -0.001890523487 0.00605500  0.00009041  0.0016932 0.0000
 72 -29134.4962029324  -0.015893179581 0.00145979  0.00002106  0.0017804 0.0000
 73 -29134.4668104788   0.029392453631 0.00401217  0.00006087  0.0015350 0.0000
 74 -29134.4879067777  -0.021096298879 0.00450693  0.00007165  0.0015295 0.0000
 75 -29134.4885355690  -0.000628791346 0.00189744  0.00002719  0.0016018 0.0000
 76 -29134.4842905294   0.004245039636 0.00271582  0.00004268  0.0014786 0.0000
 77 -29134.4862501631  -0.001959633668 0.00119766  0.00001687  0.0015013 0.0000
 78 -29134.4794490151   0.006801147938 0.00147532  0.00002283  0.0014103 0.0000
 79 -29134.4842390345  -0.004790019368 0.00107445  0.00001688  0.0014076 0.0000
               *** Restarting incremental Fock matrix formation ***
                                   *** Resetting DIIS ***
 80 -29134.4807030225   0.003536012013 0.00028505  0.00000505  0.0013777 0.0000
 81 -29134.4807092219  -0.000006199400 0.00028885  0.00000490  0.0013801 0.0000
 82 -29134.4808529289  -0.000143707060 0.00024798  0.00000416  0.0013908 0.0000
 83 -29134.4809931572  -0.000140228229 0.00016832  0.00000282  0.0013945 0.0000
 84 -29134.4812971752  -0.000304018045 0.00007727  0.00000132  0.0013995 0.0000
 85 -29134.4812800954   0.000017079776 0.00014332  0.00000238  0.0014065 0.0000
 86 -29134.4810982492   0.000181846252 0.00019520  0.00000322  0.0014044 0.0000
 87 -29134.4810807686   0.000017480626 0.00020233  0.00000334  0.0013990 0.0000
 88 -29134.4811462593  -0.000065490756 0.00017887  0.00000296  0.0013954 0.0000
 89 -29134.4812155830  -0.000069323723 0.00015284  0.00000254  0.0013948 0.0000
 90 -29134.4812395312  -0.000023948131 0.00015174  0.00000251  0.0013954 0.0000
 91 -29134.4812243698   0.000015161393 0.00016618  0.00000274  0.0013944 0.0000
 92 -29134.4812102260   0.000014143781 0.00017468  0.00000288  0.0013915 0.0000
 93 -29134.4812295319  -0.000019305928 0.00017118  0.00000283  0.0013887 0.0000
 94 -29134.4812637967  -0.000034264765 0.00016283  0.00000270  0.0013869 0.0000
 95 -29134.4812891248  -0.000025328096 0.00015888  0.00000263  0.0013860 0.0000
 96 -29134.4812995832  -0.000010458436 0.00016094  0.00000267  0.0013849 0.0000
 97 -29134.4813059136  -0.000006330360 0.00016395  0.00000272  0.0013833 0.0000
 98 -29134.4813183441  -0.000012430530 0.00016396  0.00000272  0.0013816 0.0000
 99 -29134.4813376975  -0.000019353407 0.00016158  0.00000269  0.0013801 0.0000
               *** Restarting incremental Fock matrix formation ***
                                   *** Resetting DIIS ***
100 -29134.4809891344   0.000348563124 0.00030141  0.00000497  0.0013790 0.0000
101 -29134.4810450131  -0.000055878685 0.00028493  0.00000474  0.0013669 0.0000
102 -29134.4812264004  -0.000181387339 0.00022444  0.00000377  0.0013624 0.0000
103 -29134.4815174471  -0.000291046650 0.00012221  0.00000209  0.0013645 0.0000
104 -29134.4818163729  -0.000298925872 0.00002835  0.00000053  0.0013724 0.0000
105 -29134.4814946329   0.000321740070 0.00016440  0.00000273  0.0013814 0.0000
106 -29134.4813390561   0.000155576781 0.00020750  0.00000347  0.0013734 0.0000
107 -29134.4813881238  -0.000049067708 0.00018812  0.00000317  0.0013676 0.0000
108 -29134.4815026849  -0.000114561131 0.00014815  0.00000252  0.0013671 0.0000
109 -29134.4815802786  -0.000077593701 0.00012818  0.00000218  0.0013698 0.0000
110 -29134.4815562605   0.000024018136 0.00014992  0.00000254  0.0013719 0.0000
111 -29134.4815145639   0.000041696574 0.00016963  0.00000287  0.0013702 0.0000
112 -29134.4815235310  -0.000008967068 0.00016838  0.00000287  0.0013678 0.0000
113 -29134.4815676232  -0.000044092161 0.00015649  0.00000267  0.0013670 0.0000
114 -29134.4816028369  -0.000035213794 0.00014967  0.00000256  0.0013675 0.0000
115 -29134.4816105256  -0.000007688694 0.00015346  0.00000263  0.0013680 0.0000
116 -29134.4816090586   0.000001467080 0.00015950  0.00000274  0.0013675 0.0000
117 -29134.4816188656  -0.000009807027 0.00016050  0.00000276  0.0013667 0.0000
118 -29134.4816405582  -0.000021692624 0.00015754  0.00000272  0.0013663 0.0000
119 -29134.4816622783  -0.000021720080 0.00015526  0.00000268  0.0013662 0.0000
               *** Restarting incremental Fock matrix formation ***
                                   *** Resetting DIIS ***
120 -29134.4812681177   0.000394160630 0.00029735  0.00000510  0.0013663 0.0000
121 -29134.4813301073  -0.000061989656 0.00028004  0.00000485  0.0013558 0.0000
122 -29134.4815294320  -0.000199324732 0.00022192  0.00000386  0.0013530 0.0000
123 -29134.4818412359  -0.000311803858 0.00012405  0.00000218  0.0013565 0.0000
124 -29134.4821582730  -0.000317037066 0.00003412  0.00000063  0.0013649 0.0000
125 -29134.4818031685   0.000355104472 0.00016966  0.00000289  0.0013737 0.0000
126 -29134.4816479146   0.000155253889 0.00020924  0.00000357  0.0013665 0.0000
127 -29134.4817055635  -0.000057648918 0.00019045  0.00000325  0.0013619 0.0000
128 -29134.4818218614  -0.000116297881 0.00015431  0.00000264  0.0013624 0.0000
129 -29134.4818970359  -0.000075174488 0.00013782  0.00000235  0.0013656 0.0000
130 -29134.4818685796   0.000028456307 0.00016059  0.00000271  0.0013678 0.0000
131 -29134.4818297787   0.000038800892 0.00017899  0.00000302  0.0013667 0.0000
132 -29134.4818419373  -0.000012158627 0.00017829  0.00000300  0.0013651 0.0000
133 -29134.4818850120  -0.000043074710 0.00016891  0.00000284  0.0013650 0.0000
134 -29134.4819178771  -0.000032865028 0.00016443  0.00000276  0.0013659 0.0000
135 -29134.4819253980  -0.000007520968 0.00016918  0.00000283  0.0013666 0.0000
136 -29134.4819260168  -0.000000618726 0.00017546  0.00000292  0.0013666 0.0000
137 -29134.4819370260  -0.000011009244 0.00017742  0.00000295  0.0013663 0.0000
138 -29134.4819579535  -0.000020927488 0.00017625  0.00000292  0.0013663 0.0000
139 -29134.4819786516  -0.000020698099 0.00017568  0.00000291  0.0013666 0.0000
               *** Restarting incremental Fock matrix formation ***
                                   *** Resetting DIIS ***
140 -29134.4815700905   0.000408561038 0.00032193  0.00000526  0.0013669 0.0000
141 -29134.4816322079  -0.000062117357 0.00030810  0.00000504  0.0013574 0.0000
142 -29134.4818224457  -0.000190237792 0.00025409  0.00000417  0.0013551 0.0000
143 -29134.4821259309  -0.000303485205 0.00015975  0.00000264  0.0013582 0.0000
144 -29134.4824616031  -0.000335672172 0.00006277  0.00000106  0.0013658 0.0000
145 -29134.4821461711   0.000315431978 0.00018503  0.00000298  0.0013745 0.0000
146 -29134.4819917550   0.000154416073 0.00022767  0.00000367  0.0013691 0.0000
147 -29134.4820259128  -0.000034157816 0.00021808  0.00000353  0.0013651 0.0000
148 -29134.4821224877  -0.000096574877 0.00018924  0.00000306  0.0013650 0.0000
149 -29134.4821996329  -0.000077145221 0.00017159  0.00000277  0.0013673 0.0000
150 -29134.4821927806   0.000006852297 0.00018612  0.00000299  0.0013694 0.0000
151 -29134.4821642157   0.000028564900 0.00020238  0.00000324  0.0013690 0.0000
152 -29134.4821677882  -0.000003572495 0.00020612  0.00000330  0.0013679 0.0000
153 -29134.4821982416  -0.000030453408 0.00020174  0.00000322  0.0013675 0.0000
154 -29134.4822287546  -0.000030512914 0.00019830  0.00000316  0.0013679 0.0000
155 -29134.4822442284  -0.000015473859 0.00020061  0.00000319  0.0013683 0.0000
156 -29134.4822513189  -0.000007090439 0.00020547  0.00000326  0.0013684 0.0000
157 -29134.4822612502  -0.000009931362 0.00020884  0.00000331  0.0013681 0.0000
158 -29134.4822773360  -0.000016085771 0.00021015  0.00000332  0.0013679 0.0000
159 -29134.4822955732  -0.000018237180 0.00021100  0.00000333  0.0013678 0.0000
               *** Restarting incremental Fock matrix formation ***
                                   *** Resetting DIIS ***
160 -29134.4819139171   0.000381656024 0.00034691  0.00000542  0.0013678 0.0000
161 -29134.4819698488  -0.000055931661 0.00033633  0.00000526  0.0013592 0.0000
162 -29134.4821222336  -0.000152384819 0.00029595  0.00000464  0.0013566 0.0000
163 -29134.4823730301  -0.000250796453 0.00022095  0.00000348  0.0013582 0.0000
164 -29134.4826886958  -0.000315665697 0.00012886  0.00000205  0.0013635 0.0000
165 -29134.4824932811   0.000195414650 0.00020833  0.00000323  0.0013709 0.0000
166 -29134.4823689971   0.000124283986 0.00024830  0.00000385  0.0013681 0.0000
167 -29134.4823647369   0.000004260270 0.00025402  0.00000394  0.0013673 0.0000
168 -29134.4824151852  -0.000050448303 0.00024235  0.00000376  0.0013691 0.0000
169 -29134.4824743242  -0.000059139049 0.00023037  0.00000357  0.0013719 0.0000
170 -29134.4824944688  -0.000020144616 0.00023373  0.00000361  0.0013749 0.0000
171 -29134.4824909821   0.000003486704 0.00024303  0.00000374  0.0013771 0.0000
172 -29134.4824920249  -0.000001042758 0.00024993  0.00000384  0.0013788 0.0000
173 -29134.4825044322  -0.000012407301 0.00025311  0.00000389  0.0013805 0.0000
174 -29134.4825221235  -0.000017691345 0.00025483  0.00000391  0.0013823 0.0000
175 -29134.4825380435  -0.000015919984 0.00025752  0.00000394  0.0013841 0.0000
176 -29134.4825503213  -0.000012277778 0.00026155  0.00000400  0.0013858 0.0000
177 -29134.4825607315  -0.000010410200 0.00026616  0.00000406  0.0013874 0.0000
178 -29134.4825711569  -0.000010425410 0.00027079  0.00000412  0.0013888 0.0000
179 -29134.4825819106  -0.000010753680 0.00027538  0.00000419  0.0013901 0.0000
               *** Restarting incremental Fock matrix formation ***
                                   *** Resetting DIIS ***
180 -29134.4823295966   0.000252313956 0.00036700  0.00000554  0.0013914 0.0000
181 -29134.4823704291  -0.000040832507 0.00036293  0.00000549  0.0013892 0.0000
182 -29134.4824462013  -0.000075772172 0.00034849  0.00000527  0.0013894 0.0000
183 -29134.4825604660  -0.000114264694 0.00032095  0.00000485  0.0013909 0.0000
184 -29134.4827114390  -0.000150972955 0.00028170  0.00000426  0.0013932 0.0000
185 -29134.4826781486   0.000033290315 0.00030285  0.00000456  0.0013962 0.0000
186 -29134.4826482988   0.000029849813 0.00032065  0.00000482  0.0013969 0.0000
187 -29134.4826350094   0.000013289471 0.00033370  0.00000500  0.0013968 0.0000
188 -29134.4826298774   0.000005132009 0.00034430  0.00000516  0.0013965 0.0000
189 -29134.4826265721   0.000003305220 0.00035484  0.00000531  0.0013962 0.0000
190 -29134.4826185451   0.000008026997 0.00036725  0.00000548  0.0013958 0.0000
191 -29134.4826036219   0.000014923273 0.00038213  0.00000570  0.0013950 0.0000
192 -29134.4825817410   0.000021880893 0.00039955  0.00000595  0.0013940 0.0000
193 -29134.4825512608   0.000030480202 0.00042010  0.00000624  0.0013925 0.0000
194 -29134.4825091623   0.000042098509 0.00044485  0.00000660  0.0013906 0.0000
195 -29134.4824509791   0.000058183119 0.00047533  0.00000704  0.0013881 0.0000
196 -29134.4823701722   0.000080806894 0.00051379  0.00000760  0.0013850 0.0000
197 -29134.4822568456   0.000113326663 0.00056363  0.00000832  0.0013809 0.0000
198 -29134.4820958277   0.000161017848 0.00063002  0.00000927  0.0013755 0.0000
199 -29134.4818642455   0.000231582195 0.00072072  0.00001058  0.0013684 0.0000
               *** Restarting incremental Fock matrix formation ***
                                   *** Resetting DIIS ***
200 -29134.4829878763  -0.001123630762 0.00037112  0.00000556  0.0013588 0.0000
201 -29134.4829810102   0.000006866154 0.00038516  0.00000570  0.0013686 0.0000
202 -29134.4828887533   0.000092256822 0.00042411  0.00000624  0.0013706 0.0000
203 -29134.4825876489   0.000301104461 0.00052602  0.00000771  0.0013680 0.0000
204 -29134.4818177337   0.000769915147 0.00078634  0.00001146  0.0013604 0.0000
205 -29134.4812875948   0.000530138950 0.00098395  0.00001431  0.0013418 0.0000
206 -29134.4807225427   0.000565052058 0.00118076  0.00001715  0.0013178 0.0000
207 -29134.4799732250   0.000749317733 0.00143834  0.00002085  0.0012892 0.0000
208 -29134.4789602298   0.001012995133 0.00176544  0.00002554  0.0012890 0.0000
209 -29134.4778574883   0.001102741597 0.00211833  0.00003061  0.0012876 0.0000
210 -29134.4767694723   0.001088015990 0.00244659  0.00003536  0.0012787 0.0000
211 -29134.4753054284   0.001464043824 0.00288895  0.00004179  0.0012570 0.0000
212 -29134.4754064141  -0.000100985653 0.00281527  0.00004103  0.0012234 0.0000
213 -29134.4691277785   0.006278635541 0.00495636  0.00007193  0.0011556 0.0000
214 -29134.4934966866  -0.024368908053 0.00150365  0.00002033  0.0011699 0.0000
215 -29134.4589018588   0.034594827834 0.00697703  0.00010006  0.0009691 0.0000
216 -29134.4871405652  -0.028238706447 0.00254120  0.00003442  0.0011159 0.0000
217 -29134.4796906023   0.007449962912 0.00353799  0.00004448  0.0009434 0.0000
218 -29134.4861799059  -0.006489303640 0.00226979  0.00002645  0.0010037 0.0000
219 -29134.4861819776  -0.000002071705 0.00131658  0.00001404  0.0009827 0.0000
               *** Restarting incremental Fock matrix formation ***
                                   *** Resetting DIIS ***
220 -29134.4852425185   0.000939459191 0.00036991  0.00000387  0.0009401 0.0000
221 -29134.4850080447   0.000234473751 0.00042063  0.00000423  0.0009488 0.0000
222 -29134.4849107237   0.000097321037 0.00052089  0.00000515  0.0009413 0.0000
223 -29134.4840308313   0.000879892370 0.00082293  0.00000806  0.0009236 0.0000
224 -29134.4824151976   0.001615633748 0.00180693  0.00001754  0.0008888 0.0000
225 -29134.4823514518   0.000063745778 0.00177102  0.00001725  0.0008327 0.0000
226 -29134.4831961438  -0.000844692033 0.00144239  0.00001422  0.0007887 0.0000
227 -29134.4808856856   0.002310458254 0.00242890  0.00002376  0.0007336 0.0000
228 -29134.4845655911  -0.003679905585 0.00072143  0.00000767  0.0006937 0.0000
229 -29134.4775217525   0.007043838636 0.00417071  0.00004080  0.0006201 0.0000
230 -29134.4888917938  -0.011370041320 0.00108482  0.00000989  0.0006329 0.0000
231 -29134.4810027392   0.007889054596 0.00230367  0.00002262  0.0005660 0.0000
232 -29134.4793000320   0.001702707184 0.00358545  0.00003584  0.0005609 0.0000
233 -29134.4847706310  -0.005470598910 0.00069107  0.00000802  0.0005611 0.0000
234 -29134.4786692687   0.006101362233 0.00441261  0.00004422  0.0004778 0.0000
235 -29134.4911925728  -0.012523304082 0.00156951  0.00001481  0.0005528 0.0000
236 -29134.4769588696   0.014233703179 0.00347563  0.00003465  0.0004943 0.0000
237 -29134.4828847462  -0.005925876547 0.00297083  0.00003081  0.0005247 0.0000
238 -29134.4836274299  -0.000742683696 0.00182387  0.00001952  0.0005198 0.0000
239 -29134.4821976221   0.001429807784 0.00349022  0.00003637  0.0004892 0.0000
               *** Restarting incremental Fock matrix formation ***
                                   *** Resetting DIIS ***
240 -29134.4861190844  -0.003921462307 0.00019997  0.00000273  0.0005310 0.0000
241 -29134.4870436384  -0.000924554035 0.00022050  0.00000275  0.0004570 0.0000
242 -29134.4868427050   0.000200933391 0.00021351  0.00000251  0.0004653 0.0000
243 -29134.4856915082   0.001151196797 0.00022756  0.00000257  0.0004700 0.0000
244 -29134.4860674289  -0.000375920637 0.00024413  0.00000276  0.0004720 0.0000
245 -29134.4859826942   0.000084734711 0.00029801  0.00000336  0.0004713 0.0000
246 -29134.4859812781   0.000001416098 0.00039140  0.00000442  0.0004697 0.0000
247 -29134.4856454533   0.000335824763 0.00047738  0.00000543  0.0004648 0.0000
248 -29134.4857581682  -0.000112714923 0.00052048  0.00000598  0.0004638 0.0000
249 -29134.4856310403   0.000127127962 0.00053949  0.00000628  0.0004638 0.0000
250 -29134.4856799816  -0.000048941314 0.00057839  0.00000681  0.0004648 0.0000
251 -29134.4855422244   0.000137757201 0.00061387  0.00000731  0.0004663 0.0000
252 -29134.4855823817  -0.000040157309 0.00064354  0.00000775  0.0004693 0.0000
253 -29134.4855094742   0.000072907489 0.00065710  0.00000801  0.0004744 0.0000
254 -29134.4855414681  -0.000031993921 0.00067671  0.00000834  0.0004791 0.0000
255 -29134.4854959602   0.000045507870 0.00068591  0.00000855  0.0004840 0.0000
256 -29134.4855259094  -0.000029949129 0.00069900  0.00000880  0.0004887 0.0000
257 -29134.4855231303   0.000002779045 0.00069257  0.00000882  0.0004936 0.0000
258 -29134.4855437209  -0.000020590618 0.00070663  0.00000908  0.0004978 0.0000
259 -29134.4855862808  -0.000042559866 0.00067858  0.00000882  0.0005026 0.0000
               *** Restarting incremental Fock matrix formation ***
                                   *** Resetting DIIS ***
260 -29134.4863792479  -0.000792967065 0.00015225  0.00000221  0.0005057 0.0000
261 -29134.4863766884   0.000002559478 0.00016433  0.00000226  0.0005071 0.0000
262 -29134.4863944853  -0.000017796854 0.00015901  0.00000215  0.0005138 0.0000
263 -29134.4864165676  -0.000022082393 0.00014854  0.00000200  0.0005170 0.0000
264 -29134.4864364908  -0.000019923202 0.00013815  0.00000186  0.0005190 0.0000
265 -29134.4864113148   0.000025176028 0.00015615  0.00000210  0.0005205 0.0000
266 -29134.4863944745   0.000016840357 0.00017022  0.00000229  0.0005212 0.0000
267 -29134.4863840304   0.000010444106 0.00018064  0.00000244  0.0005216 0.0000
268 -29134.4863775028   0.000006527524 0.00018884  0.00000256  0.0005220 0.0000
269 -29134.4863740585   0.000003444336 0.00019472  0.00000265  0.0005224 0.0000
270 -29134.4863751910  -0.000001132474 0.00019724  0.00000269  0.0005229 0.0000
271 -29134.4863794289  -0.000004237962 0.00019749  0.00000271  0.0005236 0.0000
272 -29134.4863858714  -0.000006442486 0.00019612  0.00000270  0.0005244 0.0000
273 -29134.4863939365  -0.000008065068 0.00019354  0.00000268  0.0005253 0.0000
274 -29134.4864029636  -0.000009027121 0.00019024  0.00000264  0.0005263 0.0000
275 -29134.4864123030  -0.000009339390 0.00018671  0.00000260  0.0005274 0.0000
276 -29134.4864214969  -0.000009193864 0.00018326  0.00000257  0.0005284 0.0000
277 -29134.4864302667  -0.000008769850 0.00018010  0.00000253  0.0005295 0.0000
278 -29134.4864384544  -0.000008187671 0.00017734  0.00000250  0.0005305 0.0000
279 -29134.4864460489  -0.000007594514 0.00017499  0.00000248  0.0005315 0.0000
               *** Restarting incremental Fock matrix formation ***
                                   *** Resetting DIIS ***
280 -29134.4864824607  -0.000036411759 0.00015116  0.00000216  0.0005325 0.0000
281 -29134.4864868453  -0.000004384670 0.00015156  0.00000216  0.0005342 0.0000
282 -29134.4864896797  -0.000002834389 0.00015339  0.00000217  0.0005353 0.0000
283 -29134.4864892496   0.000000430140 0.00015764  0.00000222  0.0005361 0.0000
284 -29134.4864835110   0.000005738533 0.00016613  0.00000233  0.0005368 0.0000
285 -29134.4864834658   0.000000045235 0.00017059  0.00000239  0.0005372 0.0000
286 -29134.4864861088  -0.000002642977 0.00017307  0.00000242  0.0005377 0.0000
287 -29134.4864904456  -0.000004336805 0.00017430  0.00000242  0.0005383 0.0000
288 -29134.4864961815  -0.000005735870 0.00017441  0.00000242  0.0005390 0.0000
289 -29134.4865030443  -0.000006862865 0.00017362  0.00000240  0.0005398 0.0000
290 -29134.4865101274  -0.000007083028 0.00017261  0.00000238  0.0005406 0.0000
291 -29134.4865171062  -0.000006978822 0.00017165  0.00000235  0.0005415 0.0000
292 -29134.4865237947  -0.000006688519 0.00017086  0.00000233  0.0005423 0.0000
293 -29134.4865300963  -0.000006301569 0.00017034  0.00000232  0.0005432 0.0000
294 -29134.4865360159  -0.000005919617 0.00017009  0.00000231  0.0005440 0.0000
295 -29134.4865416517  -0.000005635859 0.00017004  0.00000230  0.0005448 0.0000
296 -29134.4865471032  -0.000005451479 0.00017012  0.00000229  0.0005456 0.0000
297 -29134.4865524556  -0.000005352347 0.00017025  0.00000229  0.0005463 0.0000
298 -29134.4865577713  -0.000005315786 0.00017039  0.00000228  0.0005471 0.0000
299 -29134.4865630854  -0.000005314003 0.00017052  0.00000228  0.0005478 0.0000
               *** Restarting incremental Fock matrix formation ***
                                   *** Resetting DIIS ***
300 -29134.4865806869  -0.000017601571 0.00015992  0.00000213  0.0005486 0.0000
301 -29134.4865850991  -0.000004412144 0.00016057  0.00000213  0.0005497 0.0000
302 -29134.4865887224  -0.000003623340 0.00016180  0.00000214  0.0005505 0.0000
303 -29134.4865908017  -0.000002079341 0.00016439  0.00000217  0.0005512 0.0000
304 -29134.4865904539   0.000000347893 0.00016923  0.00000223  0.0005518 0.0000
305 -29134.4865931854  -0.000002731587 0.00017146  0.00000225  0.0005523 0.0000
306 -29134.4865972158  -0.000004030317 0.00017258  0.00000226  0.0005528 0.0000
307 -29134.4866020385  -0.000004822748 0.00017302  0.00000226  0.0005534 0.0000
308 -29134.4866074589  -0.000005420392 0.00017291  0.00000225  0.0005540 0.0000
309 -29134.4866132552  -0.000005796282 0.00017243  0.00000224  0.0005547 0.0000
310 -29134.4866189721  -0.000005716895 0.00017200  0.00000222  0.0005554 0.0000
311 -29134.4866245042  -0.000005532114 0.00017171  0.00000221  0.0005561 0.0000
312 -29134.4866298219  -0.000005317663 0.00017159  0.00000221  0.0005568 0.0000
313 -29134.4866349367  -0.000005114853 0.00017164  0.00000220  0.0005575 0.0000
314 -29134.4866398977  -0.000004960959 0.00017182  0.00000220  0.0005582 0.0000
315 -29134.4866447744  -0.000004876732 0.00017206  0.00000219  0.0005588 0.0000
316 -29134.4866496164  -0.000004841968 0.00017232  0.00000219  0.0005595 0.0000
317 -29134.4866544540  -0.000004837617 0.00017258  0.00000219  0.0005601 0.0000
318 -29134.4866593013  -0.000004847316 0.00017281  0.00000219  0.0005607 0.0000
319 -29134.4866641596  -0.000004858288 0.00017303  0.00000218  0.0005613 0.0000
               *** Restarting incremental Fock matrix formation ***
                                   *** Resetting DIIS ***
320 -29134.4866744870  -0.000010327436 0.00016776  0.00000211  0.0005620 0.0000
321 -29134.4866789316  -0.000004444599 0.00016825  0.00000211  0.0005628 0.0000
322 -29134.4866829836  -0.000004052017 0.00016908  0.00000212  0.0005635 0.0000
323 -29134.4866862920  -0.000003308396 0.00017065  0.00000213  0.0005641 0.0000
324 -29134.4866884492  -0.000002157125 0.00017344  0.00000216  0.0005646 0.0000
325 -29134.4866921481  -0.000003698977 0.00017473  0.00000217  0.0005651 0.0000
326 -29134.4866964763  -0.000004328147 0.00017541  0.00000218  0.0005655 0.0000
327 -29134.4867011770  -0.000004700698 0.00017573  0.00000218  0.0005661 0.0000
328 -29134.4867061424  -0.000004965368 0.00017577  0.00000217  0.0005666 0.0000
329 -29134.4867112478  -0.000005105408 0.00017565  0.00000217  0.0005672 0.0000
330 -29134.4867162764  -0.000005028618 0.00017559  0.00000216  0.0005678 0.0000
331 -29134.4867211933  -0.000004916958 0.00017564  0.00000216  0.0005684 0.0000
332 -29134.4867259992  -0.000004805894 0.00017578  0.00000215  0.0005690 0.0000
333 -29134.4867307119  -0.000004712649 0.00017602  0.00000215  0.0005695 0.0000
334 -29134.4867353619  -0.000004650035 0.00017631  0.00000215  0.0005701 0.0000
335 -29134.4867399842  -0.000004622329 0.00017663  0.00000215  0.0005706 0.0000
336 -29134.4867446002  -0.000004615998 0.00017695  0.00000215  0.0005712 0.0000
337 -29134.4867492207  -0.000004620484 0.00017726  0.00000215  0.0005717 0.0000
338 -29134.4867538487  -0.000004627931 0.00017756  0.00000215  0.0005722 0.0000
339 -29134.4867584817  -0.000004633093 0.00017785  0.00000214  0.0005728 0.0000
               *** Restarting incremental Fock matrix formation ***
                                   *** Resetting DIIS ***
340 -29134.4867663664  -0.000007884686 0.00017445  0.00000210  0.0005733 0.0000
341 -29134.4867708144  -0.000004447953 0.00017486  0.00000210  0.0005740 0.0000
342 -29134.4867750001  -0.000004185666 0.00017552  0.00000210  0.0005745 0.0000
343 -29134.4867786858  -0.000003685735 0.00017675  0.00000211  0.0005750 0.0000
344 -29134.4867815825  -0.000002896697 0.00017891  0.00000214  0.0005755 0.0000
345 -29134.4867855077  -0.000003925234 0.00017995  0.00000214  0.0005759 0.0000
346 -29134.4867898276  -0.000004319932 0.00018056  0.00000215  0.0005763 0.0000
347 -29134.4867943835  -0.000004555899 0.00018092  0.00000215  0.0005768 0.0000
348 -29134.4867991085  -0.000004724960 0.00018108  0.00000215  0.0005773 0.0000
349 -29134.4868039218  -0.000004813261 0.00018114  0.00000214  0.0005777 0.0000
350 -29134.4868086819  -0.000004760157 0.00018125  0.00000214  0.0005782 0.0000
351 -29134.4868133709  -0.000004689009 0.00018143  0.00000214  0.0005787 0.0000
352 -29134.4868179917  -0.000004620746 0.00018168  0.00000214  0.0005792 0.0000
353 -29134.4868225564  -0.000004564721 0.00018200  0.00000214  0.0005797 0.0000
354 -29134.4868270853  -0.000004528913 0.00018236  0.00000214  0.0005801 0.0000
355 -29134.4868316007  -0.000004515419 0.00018273  0.00000214  0.0005806 0.0000
356 -29134.4868361155  -0.000004514768 0.00018310  0.00000214  0.0005810 0.0000
357 -29134.4868406360  -0.000004520487 0.00018347  0.00000214  0.0005815 0.0000
358 -29134.4868451636  -0.000004527566 0.00018382  0.00000214  0.0005819 0.0000
359 -29134.4868496966  -0.000004533002 0.00018417  0.00000214  0.0005824 0.0000
               *** Restarting incremental Fock matrix formation ***
                                   *** Resetting DIIS ***
360 -29134.4868577672  -0.000008070627 0.00018009  0.00000209  0.0005828 0.0000
361 -29134.4868621954  -0.000004428166 0.00018047  0.00000209  0.0005834 0.0000
362 -29134.4868663195  -0.000004124187 0.00018118  0.00000209  0.0005839 0.0000
363 -29134.4868698462  -0.000003526628 0.00018265  0.00000211  0.0005843 0.0000
364 -29134.4868723966  -0.000002550427 0.00018539  0.00000213  0.0005847 0.0000
365 -29134.4868761519  -0.000003755340 0.00018668  0.00000215  0.0005850 0.0000
366 -29134.4868803441  -0.000004192181 0.00018746  0.00000215  0.0005853 0.0000
367 -29134.4868848058  -0.000004461683 0.00018792  0.00000215  0.0005856 0.0000
368 -29134.4868894701  -0.000004664267 0.00018813  0.00000215  0.0005860 0.0000
369 -29134.4868942515  -0.000004781388 0.00018819  0.00000215  0.0005864 0.0000
370 -29134.4868989837  -0.000004732232 0.00018831  0.00000215  0.0005868 0.0000
371 -29134.4869036453  -0.000004661630 0.00018851  0.00000215  0.0005872 0.0000
372 -29134.4869082363  -0.000004590995 0.00018879  0.00000215  0.0005876 0.0000
373 -29134.4869127675  -0.000004531175 0.00018915  0.00000215  0.0005880 0.0000
374 -29134.4869172597  -0.000004492191 0.00018957  0.00000215  0.0005884 0.0000
375 -29134.4869217376  -0.000004477879 0.00019000  0.00000215  0.0005887 0.0000
376 -29134.4869262162  -0.000004478672 0.00019044  0.00000215  0.0005891 0.0000
377 -29134.4869307035  -0.000004487261 0.00019088  0.00000215  0.0005894 0.0000
378 -29134.4869352019  -0.000004498459 0.00019130  0.00000216  0.0005898 0.0000
379 -29134.4869397102  -0.000004508285 0.00019171  0.00000216  0.0005901 0.0000
               *** Restarting incremental Fock matrix formation ***
                                   *** Resetting DIIS ***
380 -29134.4869496598  -0.000009949599 0.00018468  0.00000208  0.0005905 0.0000
381 -29134.4869540486  -0.000004388763 0.00018508  0.00000208  0.0005911 0.0000
382 -29134.4869579847  -0.000003936115 0.00018603  0.00000209  0.0005916 0.0000
383 -29134.4869610104  -0.000003025649 0.00018822  0.00000211  0.0005919 0.0000
384 -29134.4869625211  -0.000001510769 0.00019259  0.00000215  0.0005922 0.0000
385 -29134.4869658306  -0.000003309491 0.00019461  0.00000217  0.0005923 0.0000
386 -29134.4869697886  -0.000003958001 0.00019581  0.00000218  0.0005925 0.0000
387 -29134.4869741547  -0.000004366077 0.00019648  0.00000219  0.0005927 0.0000
388 -29134.4869788417  -0.000004686968 0.00019672  0.00000219  0.0005930 0.0000
389 -29134.4869837371  -0.000004895464 0.00019667  0.00000219  0.0005933 0.0000
390 -29134.4869885872  -0.000004850048 0.00019667  0.00000218  0.0005936 0.0000
391 -29134.4869933517  -0.000004764552 0.00019679  0.00000218  0.0005939 0.0000
392 -29134.4869980210  -0.000004669295 0.00019704  0.00000218  0.0005942 0.0000
393 -29134.4870026024  -0.000004581365 0.00019741  0.00000218  0.0005945 0.0000
394 -29134.4870071206  -0.000004518191 0.00019788  0.00000219  0.0005948 0.0000
395 -29134.4870116111  -0.000004490488 0.00019839  0.00000219  0.0005951 0.0000
396 -29134.4870160972  -0.000004486119 0.00019892  0.00000219  0.0005953 0.0000
397 -29134.4870205930  -0.000004495829 0.00019944  0.00000219  0.0005956 0.0000
398 -29134.4870251051  -0.000004512076 0.00019994  0.00000220  0.0005959 0.0000
399 -29134.4870296338  -0.000004528694 0.00020043  0.00000220  0.0005961 0.0000
               *** Restarting incremental Fock matrix formation ***
                                   *** Resetting DIIS ***
400 -29134.4870427928  -0.000013159006 0.00018818  0.00000207  0.0005964 0.0000
401 -29134.4870471285  -0.000004335758 0.00018864  0.00000207  0.0005972 0.0000
402 -29134.4870507993  -0.000003670750 0.00018997  0.00000208  0.0005976 0.0000
403 -29134.4870531076  -0.000002308348 0.00019330  0.00000211  0.0005979 0.0000
404 -29134.4870531234  -0.000000015796 0.00020020  0.00000219  0.0005980 0.0000
405 -29134.4870557409  -0.000002617424 0.00020347  0.00000222  0.0005979 0.0000
406 -29134.4870593147  -0.000003573827 0.00020541  0.00000224  0.0005979 0.0000
407 -29134.4870634965  -0.000004181798 0.00020653  0.00000225  0.0005979 0.0000
408 -29134.4870681799  -0.000004683363 0.00020692  0.00000225  0.0005980 0.0000
409 -29134.4870732316  -0.000005051737 0.00020675  0.00000225  0.0005982 0.0000
410 -29134.4870782761  -0.000005044494 0.00020660  0.00000224  0.0005984 0.0000
411 -29134.4870832379  -0.000004961825 0.00020656  0.00000224  0.0005987 0.0000
412 -29134.4870880836  -0.000004845664 0.00020669  0.00000224  0.0005989 0.0000
413 -29134.4870928045  -0.000004720892 0.00020701  0.00000224  0.0005991 0.0000
414 -29134.4870974222  -0.000004617763 0.00020749  0.00000224  0.0005993 0.0000
415 -29134.4871019827  -0.000004560447 0.00020807  0.00000225  0.0005995 0.0000
416 -29134.4871065198  -0.000004537083 0.00020869  0.00000225  0.0005997 0.0000
417 -29134.4871110577  -0.000004537967 0.00020933  0.00000226  0.0005999 0.0000
418 -29134.4871156116  -0.000004553924 0.00020996  0.00000226  0.0006000 0.0000
419 -29134.4871201875  -0.000004575813 0.00021056  0.00000227  0.0006002 0.0000
               *** Restarting incremental Fock matrix formation ***
                                   *** Resetting DIIS ***
420 -29134.4871378380  -0.000017650516 0.00019051  0.00000205  0.0006003 0.0000
421 -29134.4871421119  -0.000004273959 0.00019107  0.00000206  0.0006014 0.0000
422 -29134.4871454765  -0.000003364570 0.00019287  0.00000207  0.0006019 0.0000
423 -29134.4871469375  -0.000001461030 0.00019766  0.00000212  0.0006021 0.0000
424 -29134.4871451560   0.000001781540 0.00020785  0.00000223  0.0006021 0.0000
425 -29134.4871468220  -0.000001665994 0.00021296  0.00000228  0.0006017 0.0000
426 -29134.4871497992  -0.000002977191 0.00021614  0.00000231  0.0006014 0.0000
427 -29134.4871536097  -0.000003810477 0.00021812  0.00000233  0.0006012 0.0000
428 -29134.4871581400  -0.000004530331 0.00021898  0.00000234  0.0006012 0.0000
429 -29134.4871632688  -0.000005128819 0.00021889  0.00000234  0.0006012 0.0000
430 -29134.4871684933  -0.000005224443 0.00021866  0.00000234  0.0006013 0.0000
431 -29134.4871736920  -0.000005198704 0.00021847  0.00000233  0.0006014 0.0000
432 -29134.4871787924  -0.000005100417 0.00021843  0.00000233  0.0006016 0.0000
433 -29134.4871837506  -0.000004958179 0.00021861  0.00000233  0.0006017 0.0000
434 -29134.4871885659  -0.000004815298 0.00021904  0.00000233  0.0006018 0.0000
435 -29134.4871932825  -0.000004716680 0.00021963  0.00000234  0.0006019 0.0000
436 -29134.4871979393  -0.000004656795 0.00022034  0.00000234  0.0006020 0.0000
437 -29134.4872025696  -0.000004630310 0.00022111  0.00000235  0.0006021 0.0000
438 -29134.4872071995  -0.000004629888 0.00022191  0.00000236  0.0006021 0.0000
439 -29134.4872118453  -0.000004645735 0.00022269  0.00000236  0.0006021 0.0000
               *** Restarting incremental Fock matrix formation ***
                                   *** Resetting DIIS ***
440 -29134.4872355244  -0.000023679124 0.00019156  0.00000204  0.0006022 0.0000
441 -29134.4872397329  -0.000004208516 0.00019224  0.00000204  0.0006036 0.0000
442 -29134.4872427821  -0.000003049154 0.00019455  0.00000206  0.0006042 0.0000
443 -29134.4872433351  -0.000000553016 0.00020099  0.00000213  0.0006044 0.0000
444 -29134.4872395677   0.000003767349 0.00021506  0.00000228  0.0006042 0.0000
445 -29134.4872399814  -0.000000413631 0.00022273  0.00000236  0.0006035 0.0000
446 -29134.4872420811  -0.000002099769 0.00022779  0.00000241  0.0006029 0.0000
447 -29134.4872452279  -0.000003146801 0.00023128  0.00000244  0.0006025 0.0000
448 -29134.4872493131  -0.000004085210 0.00023323  0.00000246  0.0006022 0.0000
449 -29134.4872542736  -0.000004960475 0.00023374  0.00000247  0.0006020 0.0000
450 -29134.4872595069  -0.000005233294 0.00023382  0.00000247  0.0006019 0.0000
451 -29134.4872648506  -0.000005343747 0.00023373  0.00000247  0.0006019 0.0000
452 -29134.4872701914  -0.000005340720 0.00023365  0.00000247  0.0006019 0.0000
453 -29134.4872754361  -0.000005244779 0.00023374  0.00000247  0.0006019 0.0000
454 -29134.4872805389  -0.000005102716 0.00023409  0.00000247  0.0006019 0.0000
455 -29134.4872855195  -0.000004980615 0.00023465  0.00000247  0.0006019 0.0000
456 -29134.4872904026  -0.000004883095 0.00023541  0.00000248  0.0006019 0.0000
457 -29134.4872952179  -0.000004815349 0.00023631  0.00000249  0.0006018 0.0000
458 -29134.4872999960  -0.000004778125 0.00023729  0.00000250  0.0006018 0.0000
459 -29134.4873047620  -0.000004765930 0.00023833  0.00000251  0.0006017 0.0000
               *** Restarting incremental Fock matrix formation ***
                                   *** Resetting DIIS ***
460 -29134.4873368359  -0.000032073945 0.00019114  0.00000202  0.0006016 0.0000
461 -29134.4873409848  -0.000004148871 0.00019196  0.00000202  0.0006037 0.0000
462 -29134.4873437521  -0.000002767301 0.00019474  0.00000205  0.0006044 0.0000
463 -29134.4873434179   0.000000334185 0.00020285  0.00000213  0.0006046 0.0000
464 -29134.4873375985   0.000005819431 0.00022114  0.00000232  0.0006042 0.0000
465 -29134.4873363753   0.000001223198 0.00023227  0.00000244  0.0006032 0.0000
466 -29134.4873372380  -0.000000862667 0.00024002  0.00000252  0.0006023 0.0000
467 -29134.4873393187  -0.000002080775 0.00024593  0.00000258  0.0006014 0.0000
468 -29134.4873425005  -0.000003181816 0.00024996  0.00000263  0.0006008 0.0000
469 -29134.4873468189  -0.000004318401 0.00025208  0.00000265  0.0006003 0.0000
470 -29134.4873516266  -0.000004807680 0.00025342  0.00000266  0.0006000 0.0000
471 -29134.4873567425  -0.000005115842 0.00025430  0.00000267  0.0005997 0.0000
472 -29134.4873620365  -0.000005294001 0.00025490  0.00000268  0.0005995 0.0000
473 -29134.4873673801  -0.000005343609 0.00025546  0.00000268  0.0005993 0.0000
474 -29134.4873726772  -0.000005297141 0.00025613  0.00000269  0.0005992 0.0000
475 -29134.4873779062  -0.000005228951 0.00025697  0.00000270  0.0005990 0.0000
476 -29134.4873830551  -0.000005148941 0.00025799  0.00000271  0.0005988 0.0000
477 -29134.4873881264  -0.000005071324 0.00025920  0.00000272  0.0005986 0.0000
478 -29134.4873931333  -0.000005006910 0.00026056  0.00000274  0.0005983 0.0000
479 -29134.4873980930  -0.000004959613 0.00026207  0.00000275  0.0005981 0.0000
               *** Restarting incremental Fock matrix formation ***
                                   *** Resetting DIIS ***
480 -29134.4874434244  -0.000045331461 0.00018894  0.00000200  0.0005978 0.0000
481 -29134.4874475434  -0.000004118938 0.00018995  0.00000200  0.0006010 0.0000
482 -29134.4874501562  -0.000002612818 0.00019296  0.00000203  0.0006021 0.0000
483 -29134.4874491234   0.000001032800 0.00020240  0.00000213  0.0006023 0.0000
484 -29134.4874414222   0.000007701194 0.00022467  0.00000236  0.0006019 0.0000
485 -29134.4874379819   0.000003440320 0.00024048  0.00000252  0.0006006 0.0000
486 -29134.4874371300   0.000000851815 0.00025201  0.00000264  0.0005992 0.0000
487 -29134.4874376148  -0.000000484804 0.00026153  0.00000275  0.0005979 0.0000
488 -29134.4874392490  -0.000001634162 0.00026906  0.00000283  0.0005968 0.0000
489 -29134.4874421560  -0.000002906978 0.00027447  0.00000288  0.0005958 0.0000
490 -29134.4874457142  -0.000003558227 0.00027890  0.00000293  0.0005950 0.0000
491 -29134.4874497318  -0.000004017620 0.00028269  0.00000297  0.0005944 0.0000
492 -29134.4874540985  -0.000004366677 0.00028601  0.00000301  0.0005938 0.0000
493 -29134.4874586915  -0.000004592941 0.00028908  0.00000304  0.0005932 0.0000
494 -29134.4874633928  -0.000004701396 0.00029210  0.00000308  0.0005927 0.0000
495 -29134.4874681525  -0.000004759691 0.00029517  0.00000311  0.0005921 0.0000
496 -29134.4874729237  -0.000004771136 0.00029836  0.00000314  0.0005916 0.0000
497 -29134.4874776742  -0.000004750545 0.00030173  0.00000318  0.0005910 0.0000
498 -29134.4874823831  -0.000004708829 0.00030534  0.00000322  0.0005904 0.0000
499 -29134.4874870374  -0.000004654386 0.00030920  0.00000326  0.0005897 0.0000
               *** Restarting incremental Fock matrix formation ***
                                   *** Resetting DIIS ***
500 -29134.4875585304  -0.000071492930 0.00018426  0.00000197  0.0005890 0.0000
501 -29134.4875626856  -0.000004155278 0.00018562  0.00000197  0.0005946 0.0000
502 -29134.4875655396  -0.000002853922 0.00018816  0.00000199  0.0005965 0.0000
503 -29134.4875644901   0.000001049433 0.00019761  0.00000209  0.0005970 0.0000
504 -29134.4875558013   0.000008688799 0.00022192  0.00000234  0.0005966 0.0000
505 -29134.4875490522   0.000006749102 0.00024441  0.00000258  0.0005951 0.0000
506 -29134.4875457615   0.000003290730 0.00026126  0.00000276  0.0005932 0.0000
507 -29134.4875439310   0.000001830464 0.00027593  0.00000292  0.0005913 0.0000
508 -29134.4875431786   0.000000752396 0.00028883  0.00000306  0.0005896 0.0000
509 -29134.4875435861  -0.000000407446 0.00029988  0.00000318  0.0005880 0.0000
510 -29134.4875446452  -0.000001059092 0.00031014  0.00000329  0.0005866 0.0000
511 -29134.4875460732  -0.000001428041 0.00032018  0.00000340  0.0005852 0.0000
512 -29134.4875477920  -0.000001718821 0.00033013  0.00000351  0.0005839 0.0000
513 -29134.4875496965  -0.000001904460 0.00034021  0.00000362  0.0005826 0.0000
514 -29134.4875516720  -0.000001975455 0.00035066  0.00000373  0.0005813 0.0000
515 -29134.4875536407  -0.000001968780 0.00036164  0.00000385  0.0005799 0.0000
516 -29134.4875555247  -0.000001883975 0.00037332  0.00000398  0.0005784 0.0000
517 -29134.4875572572  -0.000001732475 0.00038587  0.00000412  0.0005768 0.0000
518 -29134.4875587831  -0.000001525910 0.00039941  0.00000427  0.0005752 0.0000
519 -29134.4875600603  -0.000001277211 0.00041409  0.00000443  0.0005734 0.0000
               *** Restarting incremental Fock matrix formation ***
                                   *** Resetting DIIS ***
520 -29134.4876878185  -0.000127758191 0.00017564  0.00000194  0.0005715 0.0000
521 -29134.4876918284  -0.000004009868 0.00017836  0.00000193  0.0005821 0.0000
522 -29134.4876957534  -0.000003925070 0.00017898  0.00000193  0.0005859 0.0000
523 -29134.4876963934  -0.000000640008 0.00018520  0.00000199  0.0005871 0.0000
524 -29134.4876893385   0.000007054907 0.00020575  0.00000221  0.0005871 0.0000
525 -29134.4876777419   0.000011596647 0.00023725  0.00000255  0.0005859 0.0000
526 -29134.4876709624   0.000006779454 0.00026138  0.00000281  0.0005836 0.0000
527 -29134.4876658385   0.000005123904 0.00028304  0.00000304  0.0005811 0.0000
528 -29134.4876617954   0.000004043111 0.00030326  0.00000327  0.0005785 0.0000
529 -29134.4876585569   0.000003238485 0.00032222  0.00000348  0.0005761 0.0000
530 -29134.4876558640   0.000002692977 0.00034092  0.00000368  0.0005737 0.0000
531 -29134.4876530922   0.000002771718 0.00036056  0.00000390  0.0005714 0.0000
532 -29134.4876503004   0.000002791799 0.00038120  0.00000413  0.0005690 0.0000
533 -29134.4876474342   0.000002866233 0.00040291  0.00000438  0.0005665 0.0000
534 -29134.4876445342   0.000002900008 0.00042576  0.00000463  0.0005639 0.0000
535 -29134.4876415552   0.000002978959 0.00044984  0.00000491  0.0005611 0.0000
536 -29134.4876384933   0.000003061930 0.00047529  0.00000519  0.0005581 0.0000
537 -29134.4876353259   0.000003167432 0.00050215  0.00000550  0.0005548 0.0000
538 -29134.4876321253   0.000003200606 0.00053040  0.00000583  0.0005514 0.0000
539 -29134.4876289272   0.000003198045 0.00055999  0.00000617  0.0005477 0.0000
               *** Restarting incremental Fock matrix formation ***
                                   *** Resetting DIIS ***
540 -29134.4878342640  -0.000205336815 0.00016222  0.00000189  0.0005464 0.0000
541 -29134.4878377197  -0.000003455680 0.00016885  0.00000190  0.0005621 0.0000
542 -29134.4878418343  -0.000004114605 0.00016739  0.00000187  0.0005686 0.0000
543 -29134.4878447631  -0.000002928762 0.00016886  0.00000188  0.0005707 0.0000
544 -29134.4878408229   0.000003940178 0.00018216  0.00000202  0.0005712 0.0000
545 -29134.4878259933   0.000014829595 0.00022036  0.00000244  0.0005705 0.0000
546 -29134.4878153612   0.000010632102 0.00025172  0.00000279  0.0005682 0.0000
547 -29134.4878064708   0.000008890464 0.00028114  0.00000312  0.0005651 0.0000
548 -29134.4877986673   0.000007803414 0.00030947  0.00000345  0.0005617 0.0000
549 -29134.4877915623   0.000007105005 0.00033665  0.00000376  0.0005583 0.0000
550 -29134.4877848760   0.000006686369 0.00036396  0.00000407  0.0005549 0.0000
551 -29134.4877774247   0.000007451257 0.00039372  0.00000442  0.0005514 0.0000
552 -29134.4877697318   0.000007692877 0.00042539  0.00000479  0.0005478 0.0000
553 -29134.4877620196   0.000007712217 0.00045829  0.00000517  0.0005439 0.0000
554 -29134.4877547521   0.000007267499 0.00049193  0.00000557  0.0005398 0.0000
555 -29134.4877477319   0.000007020204 0.00052649  0.00000598  0.0005354 0.0000
556 -29134.4877409260   0.000006805923 0.00056248  0.00000642  0.0005331 0.0000
557 -29134.4877345413   0.000006384646 0.00059926  0.00000687  0.0005343 0.0000
558 -29134.4877286811   0.000005860220 0.00063701  0.00000734  0.0005355 0.0000
559 -29134.4877235916   0.000005089554 0.00067497  0.00000782  0.0005366 0.0000
               *** Restarting incremental Fock matrix formation ***
                                   *** Resetting DIIS ***
560 -29134.4879940885  -0.000270496905 0.00014466  0.00000182  0.0005377 0.0000
561 -29134.4879999438  -0.000005855283 0.00015654  0.00000187  0.0005346 0.0000
562 -29134.4879991289   0.000000814882 0.00015437  0.00000182  0.0005436 0.0000
563 -29134.4880028862  -0.000003757359 0.00015332  0.00000180  0.0005466 0.0000
564 -29134.4879995651   0.000003321162 0.00016284  0.00000191  0.0005473 0.0000
565 -29134.4879857350   0.000013830107 0.00020308  0.00000237  0.0005468 0.0000
566 -29134.4879711959   0.000014539019 0.00024007  0.00000281  0.0005445 0.0000
567 -29134.4879590190   0.000012176955 0.00027658  0.00000324  0.0005410 0.0000
568 -29134.4879474275   0.000011591495 0.00031199  0.00000367  0.0005368 0.0000
569 -29134.4879376817   0.000009745752 0.00034501  0.00000407  0.0005324 0.0000
570 -29134.4879276555   0.000010026215 0.00037846  0.00000448  0.0005279 0.0000
571 -29134.4879162664   0.000011389169 0.00041617  0.00000495  0.0005234 0.0000
572 -29134.4879045503   0.000011716031 0.00045561  0.00000544  0.0005186 0.0000
573 -29134.4878936940   0.000010856318 0.00049512  0.00000594  0.0005134 0.0000
574 -29134.4878836900   0.000010003965 0.00053452  0.00000645  0.0005131 0.0000
575 -29134.4878740853   0.000009604762 0.00057509  0.00000698  0.0005144 0.0000
576 -29134.4878651773   0.000008908020 0.00061623  0.00000753  0.0005157 0.0000
577 -29134.4878575125   0.000007664727 0.00065713  0.00000808  0.0005169 0.0000
578 -29134.4878507882   0.000006724382 0.00069838  0.00000866  0.0005179 0.0000
579 -29134.4878461205   0.000004667694 0.00073768  0.00000922  0.0005189 0.0000
               *** Restarting incremental Fock matrix formation ***
                                   *** Resetting DIIS ***
580 -29134.4881622198  -0.000316099300 0.00012738  0.00000174  0.0005196 0.0000
581 -29134.4881774084  -0.000015188594 0.00013975  0.00000182  0.0004990 0.0000
582 -29134.4881638219   0.000013586487 0.00013757  0.00000176  0.0005099 0.0000
583 -29134.4881679270  -0.000004105175 0.00013571  0.00000173  0.0005135 0.0000
584 -29134.4881625195   0.000005407564 0.00014386  0.00000183  0.0005143 0.0000
585 -29134.4881532011   0.000009318399 0.00018292  0.00000232  0.0005138 0.0000
586 -29134.4881338785   0.000019322568 0.00022393  0.00000284  0.0005115 0.0000
587 -29134.4881194226   0.000014455927 0.00026611  0.00000339  0.0005076 0.0000
588 -29134.4881042145   0.000015208105 0.00030543  0.00000390  0.0005027 0.0000
589 -29134.4880946292   0.000009585230 0.00033896  0.00000435  0.0004974 0.0000
590 -29134.4880817687   0.000012860568 0.00037475  0.00000484  0.0004922 0.0000
591 -29134.4880676856   0.000014083089 0.00041726  0.00000542  0.0004870 0.0000
592 -29134.4880532882   0.000014397407 0.00045856  0.00000599  0.0004837 0.0000
593 -29134.4880412318   0.000012056389 0.00049998  0.00000658  0.0004852 0.0000
594 -29134.4880301551   0.000011076718 0.00053842  0.00000714  0.0004865 0.0000
595 -29134.4880175756   0.000012579501 0.00058471  0.00000782  0.0004876 0.0000
596 -29134.4880148792   0.000002696404 0.00061001  0.00000824  0.0004889 0.0000
597 -29134.4879804130   0.000034466138 0.00070782  0.00000965  0.0004890 0.0000
598 -29134.4881072684  -0.000126855390 0.00047586  0.00000663  0.0004927 0.0000
599 -29134.4876318084   0.000475460005 0.00174221  0.00002340  0.0004783 0.0000
               *** Restarting incremental Fock matrix formation ***
                                   *** Resetting DIIS ***
600 -29134.4883471009  -0.000715292528 0.00011024  0.00000171  0.0005407 0.0000
601 -29134.4887062483  -0.000359147343 0.00012741  0.00000185  0.0004611 0.0000
602 -29134.4883259695   0.000380278834 0.00012330  0.00000169  0.0004575 0.0000
603 -29134.4883073892   0.000018580213 0.00012118  0.00000163  0.0004653 0.0000
604 -29134.4882983640   0.000009025251 0.00012640  0.00000169  0.0004663 0.0000
605 -29134.4883718180  -0.000073454030 0.00014831  0.00000197  0.0004664 0.0000
606 -29134.4883214630   0.000050355033 0.00019157  0.00000253  0.0004651 0.0000
607 -29134.4883083803   0.000013082681 0.00024142  0.00000317  0.0004622 0.0000
608 -29134.4882817825   0.000026597801 0.00029253  0.00000383  0.0004573 0.0000
609 -29134.4882828511  -0.000001068584 0.00033083  0.00000431  0.0004516 0.0000
610 -29134.4882661427   0.000016708382 0.00036624  0.00000475  0.0004459 0.0000
611 -29134.4882540209   0.000012121771 0.00042076  0.00000543  0.0004412 0.0000
612 -29134.4882343765   0.000019644394 0.00046766  0.00000600  0.0004428 0.0000
613 -29134.4882232984   0.000011078118 0.00052993  0.00000676  0.0004440 0.0000
614 -29134.4882179109   0.000005387494 0.00055387  0.00000702  0.0004455 0.0000
615 -29134.4881748730   0.000043037959 0.00070271  0.00000881  0.0004450 0.0000
616 -29134.4883192870  -0.000144414011 0.00038810  0.00000492  0.0004501 0.0000
617 -29134.4878959912   0.000423295802 0.00173854  0.00002119  0.0004325 0.0000
618 -29134.4899045226  -0.002008531374 0.00151444  0.00001801  0.0004902 0.0000
619 -29134.4872841356   0.002620386971 0.00139413  0.00001668  0.0004962 0.0000
               *** Restarting incremental Fock matrix formation ***
                                   *** Resetting DIIS ***
620 -29134.4884796943  -0.001195558747 0.00010405  0.00000150  0.0004633 0.0000
621 -29134.4883761720   0.000103522325 0.00012362  0.00000159  0.0004133 0.0000
622 -29134.4884980906  -0.000121918609 0.00012076  0.00000150  0.0004215 0.0000
623 -29134.4885045632  -0.000006472590 0.00011987  0.00000147  0.0004243 0.0000
624 -29134.4885200163  -0.000015453115 0.00013055  0.00000159  0.0004252 0.0000
625 -29134.4884503310   0.000069685360 0.00017426  0.00000212  0.0004244 0.0000
626 -29134.4884561206  -0.000005789618 0.00023054  0.00000279  0.0004226 0.0000
627 -29134.4884225092   0.000033611359 0.00029069  0.00000350  0.0004184 0.0000
628 -29134.4884253149  -0.000002805697 0.00033487  0.00000403  0.0004130 0.0000
629 -29134.4884015619   0.000023753026 0.00036775  0.00000441  0.0004075 0.0000
630 -29134.4883979001   0.000003661808 0.00042446  0.00000507  0.0004041 0.0000
631 -29134.4883713777   0.000026522372 0.00047651  0.00000567  0.0004056 0.0000
632 -29134.4883666676   0.000004710113 0.00054250  0.00000642  0.0004068 0.0000
633 -29134.4883549432   0.000011724405 0.00056596  0.00000667  0.0004082 0.0000
634 -29134.4883180610   0.000036882164 0.00073087  0.00000854  0.0004075 0.0000
635 -29134.4884694924  -0.000151431337 0.00033831  0.00000404  0.0004127 0.0000
636 -29134.4880677522   0.000401740213 0.00186433  0.00002127  0.0003926 0.0000
637 -29134.4899707255  -0.001902973319 0.00154633  0.00001722  0.0004519 0.0000
638 -29134.4874003817   0.002570343775 0.00149787  0.00001680  0.0004539 0.0000
639 -29134.4876988272  -0.000298445506 0.00004006  0.00000058  0.0004267 0.0000
               *** Restarting incremental Fock matrix formation ***
                                   *** Resetting DIIS ***
640 -29134.4885913017  -0.000892474527 0.00011452  0.00000134  0.0003809 0.0000
641 -29134.4885755956   0.000015706129 0.00011786  0.00000136  0.0003838 0.0000
642 -29134.4885876332  -0.000012037613 0.00012843  0.00000148  0.0003849 0.0000
643 -29134.4885474799   0.000040153289 0.00015408  0.00000177  0.0003843 0.0000
644 -29134.4885631199  -0.000015640020 0.00022136  0.00000252  0.0003829 0.0000
645 -29134.4885352467   0.000027873222 0.00028055  0.00000319  0.0003793 0.0000
646 -29134.4885366516  -0.000001404926 0.00032841  0.00000373  0.0003746 0.0000
647 -29134.4885155692   0.000021082466 0.00036111  0.00000410  0.0003695 0.0000
648 -29134.4885147675   0.000000801680 0.00041939  0.00000474  0.0003675 0.0000
649 -29134.4884886346   0.000026132853 0.00047063  0.00000531  0.0003689 0.0000
650 -29134.4884859183   0.000002716355 0.00053909  0.00000606  0.0003698 0.0000
651 -29134.4884745503   0.000011368014 0.00055610  0.00000624  0.0003711 0.0000
652 -29134.4884351115   0.000039438746 0.00075144  0.00000836  0.0003700 0.0000
653 -29134.4886222371  -0.000187125526 0.00020771  0.00000243  0.0003759 0.0000
654 -29134.4882837473   0.000338489801 0.00164390  0.00001796  0.0003504 0.0000
655 -29134.4895832321  -0.001299484818 0.00103396  0.00001097  0.0004003 0.0000
656 -29134.4877962038   0.001787028254 0.00127266  0.00001368  0.0003889 0.0000
657 -29134.4887740777  -0.000977873897 0.00072982  0.00000809  0.0003791 0.0000
658 -29134.4878655460   0.000908531758 0.00155951  0.00001685  0.0003569 0.0000
659 -29134.4888529676  -0.000987421605 0.00033203  0.00000388  0.0003855 0.0000
               *** Restarting incremental Fock matrix formation ***
                                   *** Resetting DIIS ***
660 -29134.4887145614   0.000138406129 0.00009943  0.00000117  0.0003297 0.0000
661 -29134.4887306957  -0.000016134309 0.00010931  0.00000122  0.0003237 0.0000
662 -29134.4887107218   0.000019973930 0.00011257  0.00000124  0.0003270 0.0000
663 -29134.4887186447  -0.000007922921 0.00011875  0.00000129  0.0003280 0.0000
664 -29134.4886971263   0.000021518434 0.00014384  0.00000156  0.0003278 0.0000
665 -29134.4886988379  -0.000001711633 0.00020192  0.00000218  0.0003266 0.0000
666 -29134.4886670315   0.000031806478 0.00027186  0.00000293  0.0003239 0.0000
667 -29134.4886680325  -0.000001001063 0.00031840  0.00000343  0.0003198 0.0000
668 -29134.4886561511   0.000011881384 0.00033832  0.00000365  0.0003154 0.0000
669 -29134.4886495449   0.000006606278 0.00040452  0.00000435  0.0003157 0.0000
670 -29134.4886344220   0.000015122827 0.00043621  0.00000469  0.0003170 0.0000
671 -29134.4886174093   0.000017012702 0.00054915  0.00000588  0.0003170 0.0000
672 -29134.4886548908  -0.000037481444 0.00040915  0.00000441  0.0003198 0.0000
673 -29134.4884763197   0.000178571107 0.00119277  0.00001260  0.0003126 0.0000
674 -29134.4892586845  -0.000782364870 0.00093970  0.00000966  0.0003400 0.0000
675 -29134.4882407281   0.001017956431 0.00110067  0.00001144  0.0003399 0.0000
676 -29134.4887679709  -0.000527242813 0.00048604  0.00000527  0.0003280 0.0000
677 -29134.4882410903   0.000526880605 0.00130674  0.00001372  0.0003037 0.0000
678 -29134.4887876596  -0.000546569318 0.00026097  0.00000299  0.0003310 0.0000
679 -29134.4882263797   0.000561279907 0.00316961  0.00003274  0.0002864 0.0000
               *** Restarting incremental Fock matrix formation ***
                                   *** Resetting DIIS ***
680 -29134.4888232179  -0.000596838196 0.00008925  0.00000132  0.0003932 0.0000
681 -29134.4897104376  -0.000887219663 0.00009323  0.00000124  0.0002905 0.0000
682 -29134.4890039048   0.000706532759 0.00009088  0.00000102  0.0002583 0.0000
683 -29134.4885245088   0.000479396018 0.00009638  0.00000103  0.0002656 0.0000
684 -29134.4888370835  -0.000312574659 0.00010430  0.00000110  0.0002678 0.0000
685 -29134.4888319024   0.000005181049 0.00011069  0.00000117  0.0002675 0.0000
686 -29134.4888549568  -0.000023054366 0.00014900  0.00000157  0.0002672 0.0000
687 -29134.4887421057   0.000112851078 0.00020418  0.00000214  0.0002649 0.0000
688 -29134.4888259421  -0.000083836414 0.00026529  0.00000277  0.0002614 0.0000
689 -29134.4887522087   0.000073733467 0.00029095  0.00000305  0.0002580 0.0000
690 -29134.4888125683  -0.000060359656 0.00032084  0.00000336  0.0002581 0.0000
691 -29134.4887332330   0.000079335314 0.00037900  0.00000397  0.0002583 0.0000
692 -29134.4887923373  -0.000059104328 0.00040536  0.00000425  0.0002592 0.0000
693 -29134.4887068955   0.000085441872 0.00051475  0.00000537  0.0002588 0.0000
694 -29134.4888042660  -0.000097370576 0.00030719  0.00000326  0.0002613 0.0000
[...]
B(  0-Np,  1-F ) :   0.5225 B(  0-Np,  2-F ) :   0.5201 B(  0-Np,  3-F ) :   0.5225 
B(  0-Np,  4-F ) :   0.5201 


                *******************************************
                * RELAXED MP2 DENSITY POPULATION ANALYSIS *
                *******************************************

------------------------------------------------------------------------------
                           ORCA POPULATION ANALYSIS
------------------------------------------------------------------------------
Input electron density              ... /home/nikolayandreadi_2125/_scratch/MP2/NpF4.pmp2re
Input spin density                  ... /home/nikolayandreadi_2125/_scratch/MP2/NpF4.rmp2re
BaseName (.gbw .S,...)              ... /home/nikolayandreadi_2125/_scratch/MP2/NpF4

                    ********************************
                    * MULLIKEN POPULATION ANALYSIS *
                    ********************************

------------------------------------------
MULLIKEN ATOMIC CHARGES AND SPIN DENSITIES
------------------------------------------
   0 Np:    2.111033    1.017577
   1 F :   -0.527661   -0.004859
   2 F :   -0.527845   -0.003874
   3 F :   -0.527665   -0.004900
   4 F :   -0.527861   -0.003945
Sum of atomic charges       :   -0.0000000
Sum of atomic spin densities:    1.0000000

---------------------------------------------------
MULLIKEN REDUCED ORBITAL CHARGES AND SPIN DENSITIES
---------------------------------------------------
CHARGE
  0 Nps       :    12.086285  s :    12.086285
      pz      :     9.985025  p :    29.952064
      px      :     9.984575
      py      :     9.982464
      dz2     :     6.274154  d :    31.282773
      dxz     :     6.233790
      dyz     :     6.258476
      dx2y2   :     6.275436
      dxy     :     6.240917
      f0      :     2.484592  f :    17.567845
      f+1     :     2.436837
      f-1     :     2.544805
      f+2     :     2.661967
      f-2     :     2.494116
      f+3     :     2.736961
      f-3     :     2.208565
  1 F s       :     3.998703  s :     3.998703
      pz      :     1.801648  p :     5.494365
      px      :     1.849614
      py      :     1.843103
      dz2     :     0.007178  d :     0.032305
      dxz     :     0.006639
      dyz     :     0.007034
      dx2y2   :     0.005749
      dxy     :     0.005705
      f0      :     0.000337  f :     0.002287
      f+1     :     0.000330
      f-1     :     0.000352
      f+2     :     0.000331
      f-2     :     0.000334
      f+3     :     0.000303
      f-3     :     0.000301
  2 F s       :     3.999114  s :     3.999114
      pz      :     1.800641  p :     5.494140
      px      :     1.857086
      py      :     1.836413
      dz2     :     0.007207  d :     0.032303
      dxz     :     0.006757
      dyz     :     0.007019
      dx2y2   :     0.005630
      dxy     :     0.005690
      f0      :     0.000335  f :     0.002288
      f+1     :     0.000336
      f-1     :     0.000354
      f+2     :     0.000326
      f-2     :     0.000335
      f+3     :     0.000301
      f-3     :     0.000301
  3 F s       :     3.998700  s :     3.998700
      pz      :     1.862518  p :     5.494373
      px      :     1.848008
      py      :     1.783848
      dz2     :     0.005673  d :     0.032305
      dxz     :     0.005088
      dyz     :     0.007043
      dx2y2   :     0.007285
      dxy     :     0.007215
      f0      :     0.000314  f :     0.002287
      f+1     :     0.000298
      f-1     :     0.000333
      f+2     :     0.000321
      f-2     :     0.000312
      f+3     :     0.000355
      f-3     :     0.000355
  4 F s       :     3.999095  s :     3.999095
      pz      :     1.863668  p :     5.494177
      px      :     1.775377
      py      :     1.855132
      dz2     :     0.005663  d :     0.032302
      dxz     :     0.007271
      dyz     :     0.004866
      dx2y2   :     0.007282
      dxy     :     0.007220
      f0      :     0.000314  f :     0.002288
      f+1     :     0.000338
      f-1     :     0.000294
      f+2     :     0.000330
      f-2     :     0.000302
      f+3     :     0.000364
      f-3     :     0.000345

SPIN
  0 Nps       :     0.001448  s :     0.001448
      pz      :     0.001985  p :     0.002605
      px      :     0.000073
      py      :     0.000548
      dz2     :     0.010382  d :     0.035710
      dxz     :     0.008648
      dyz     :     0.006741
      dx2y2   :     0.003896
      dxy     :     0.006043
      f0      :     0.341396  f :     0.977815
      f+1     :     0.338167
      f-1     :     0.059149
      f+2     :     0.306253
      f-2     :    -0.038085
      f+3     :    -0.081997
      f-3     :     0.052932
  1 F s       :    -0.000260  s :    -0.000260
      pz      :    -0.003804  p :    -0.004697
      px      :    -0.004308
      py      :     0.003415
      dz2     :    -0.000017  d :     0.000094
      dxz     :    -0.000024
      dyz     :     0.000061
      dx2y2   :     0.000050
      dxy     :     0.000023
      f0      :    -0.000002  f :     0.000005
      f+1     :    -0.000001
      f-1     :     0.000002
      f+2     :     0.000004
      f-2     :    -0.000000
      f+3     :     0.000002
      f-3     :     0.000001
  2 F s       :     0.000099  s :     0.000099
      pz      :    -0.005227  p :    -0.004066
      px      :     0.003903
      py      :    -0.002742
      dz2     :    -0.000004  d :     0.000089
      dxz     :     0.000089
      dyz     :    -0.000083
      dx2y2   :     0.000023
      dxy     :     0.000064
      f0      :     0.000001  f :     0.000005
      f+1     :     0.000003
      f-1     :    -0.000006
      f+2     :     0.000001
      f-2     :     0.000004
      f+3     :     0.000001
      f-3     :     0.000002
  3 F s       :    -0.000256  s :    -0.000256
      pz      :     0.001450  p :    -0.004742
      px      :    -0.002075
      py      :    -0.004117
      dz2     :     0.000017  d :     0.000093
      dxz     :     0.000015
      dyz     :     0.000061
      dx2y2   :    -0.000013
      dxy     :     0.000013
      f0      :     0.000002  f :     0.000005
      f+1     :    -0.000000
      f-1     :     0.000001
      f+2     :     0.000002
      f-2     :     0.000001
      f+3     :     0.000001
      f-3     :    -0.000001
  4 F s       :     0.000110  s :     0.000110
      pz      :     0.000504  p :    -0.004147
      px      :    -0.006119
      py      :     0.001469
      dz2     :     0.000033  d :     0.000088
      dxz     :     0.000053
      dyz     :     0.000000
      dx2y2   :    -0.000020
      dxy     :     0.000021
      f0      :     0.000001  f :     0.000005
      f+1     :     0.000002
      f-1     :     0.000000
      f+2     :     0.000002
      f-2     :    -0.000000
      f+3     :    -0.000002
      f-3     :     0.000001


                     *******************************
                     * LOEWDIN POPULATION ANALYSIS *
                     *******************************

-----------------------------------------
LOEWDIN ATOMIC CHARGES AND SPIN DENSITIES
-----------------------------------------
   0 Np:    0.667535    1.011508
   1 F :   -0.167123   -0.003143
   2 F :   -0.166602   -0.002532
   3 F :   -0.167137   -0.003200
   4 F :   -0.166672   -0.002633

--------------------------------------------------
LOEWDIN REDUCED ORBITAL CHARGES AND SPIN DENSITIES
--------------------------------------------------
CHARGE
  0 Nps       :    12.107016  s :    12.107016
      pz      :    10.033968  p :    30.102062
      px      :    10.033881
      py      :    10.034213
      dz2     :     6.409071  d :    31.896791
      dxz     :     6.329655
      dyz     :     6.390617
      dx2y2   :     6.429812
      dxy     :     6.337637
      f0      :     2.577325  f :    18.226595
      f+1     :     2.524467
      f-1     :     2.660103
      f+2     :     2.756396
      f-2     :     2.561882
      f+3     :     2.842084
      f-3     :     2.304340
  1 F s       :     3.738694  s :     3.738694
      pz      :     1.794532  p :     5.386103
      px      :     1.792705
      py      :     1.798867
      dz2     :     0.008762  d :     0.039752
      dxz     :     0.008163
      dyz     :     0.010545
      dx2y2   :     0.006003
      dxy     :     0.006281
      f0      :     0.000367  f :     0.002574
      f+1     :     0.000378
      f-1     :     0.000449
      f+2     :     0.000366
      f-2     :     0.000393
      f+3     :     0.000314
      f-3     :     0.000307
  2 F s       :     3.738397  s :     3.738397
      pz      :     1.795353  p :     5.385860
      px      :     1.800743
      py      :     1.789764
      dz2     :     0.008954  d :     0.039769
      dxz     :     0.008519
      dyz     :     0.010261
      dx2y2   :     0.005727
      dxy     :     0.006308
      f0      :     0.000360  f :     0.002577
      f+1     :     0.000394
      f-1     :     0.000457
      f+2     :     0.000353
      f-2     :     0.000397
      f+3     :     0.000309
      f-3     :     0.000307
  3 F s       :     3.738701  s :     3.738701
      pz      :     1.795652  p :     5.386111
      px      :     1.790625
      py      :     1.799834
      dz2     :     0.007463  d :     0.039751
      dxz     :     0.005121
      dyz     :     0.007279
      dx2y2   :     0.010748
      dxy     :     0.009141
      f0      :     0.000331  f :     0.002574
      f+1     :     0.000308
      f-1     :     0.000402
      f+2     :     0.000341
      f-2     :     0.000323
      f+3     :     0.000448
      f-3     :     0.000422
  4 F s       :     3.738420  s :     3.738420
      pz      :     1.797197  p :     5.385909
      px      :     1.800616
      py      :     1.788096
      dz2     :     0.007447  d :     0.039766
      dxz     :     0.007561
      dyz     :     0.004903
      dx2y2   :     0.012642
      dxy     :     0.007213
      f0      :     0.000332  f :     0.002577
      f+1     :     0.000413
      f-1     :     0.000296
      f+2     :     0.000360
      f-2     :     0.000306
      f+3     :     0.000493
      f-3     :     0.000376

SPIN
  0 Nps       :     0.001093  s :     0.001093
      pz      :     0.002877  p :     0.005470
      px      :     0.001807
      py      :     0.000785
      dz2     :     0.008558  d :     0.031168
      dxz     :     0.008037
      dyz     :     0.006144
      dx2y2   :     0.002946
      dxy     :     0.005483
      f0      :     0.339397  f :     0.973777
      f+1     :     0.336892
      f-1     :     0.058623
      f+2     :     0.304389
      f-2     :    -0.036948
      f+3     :    -0.081543
      f-3     :     0.052966
  1 F s       :    -0.000226  s :    -0.000226
      pz      :    -0.003451  p :    -0.003236
      px      :    -0.004156
      py      :     0.004371
      dz2     :    -0.000071  d :     0.000302
      dxz     :    -0.000089
      dyz     :     0.000239
      dx2y2   :     0.000171
      dxy     :     0.000051
      f0      :    -0.000006  f :     0.000017
      f+1     :    -0.000001
      f-1     :     0.000006
      f+2     :     0.000012
      f-2     :    -0.000001
      f+3     :     0.000005
      f-3     :     0.000002
  2 F s       :    -0.000272  s :    -0.000272
      pz      :    -0.004729  p :    -0.002564
      px      :     0.004586
      py      :    -0.002421
      dz2     :    -0.000016  d :     0.000287
      dxz     :     0.000315
      dyz     :    -0.000265
      dx2y2   :     0.000076
      dxy     :     0.000177
      f0      :     0.000003  f :     0.000017
      f+1     :     0.000010
      f-1     :    -0.000017
      f+2     :     0.000003
      f-2     :     0.000011
      f+3     :     0.000002
      f-3     :     0.000005
  3 F s       :    -0.000230  s :    -0.000230
      pz      :     0.001938  p :    -0.003286
      px      :    -0.001945
      py      :    -0.003279
      dz2     :     0.000026  d :     0.000298
      dxz     :     0.000042
      dyz     :     0.000235
      dx2y2   :    -0.000016
      dxy     :     0.000011
      f0      :     0.000005  f :     0.000017
      f+1     :    -0.000001
      f-1     :     0.000003
      f+2     :     0.000006
      f-2     :     0.000004
      f+3     :     0.000002
      f-3     :    -0.000002
  4 F s       :    -0.000280  s :    -0.000280
      pz      :     0.000956  p :    -0.002650
      px      :    -0.005364
      py      :     0.001758
      dz2     :     0.000050  d :     0.000280
      dxz     :     0.000205
      dyz     :    -0.000006
      dx2y2   :    -0.000100
      dxy     :     0.000130
      f0      :     0.000004  f :     0.000017
      f+1     :     0.000004
      f-1     :     0.000001
      f+2     :     0.000007
      f-2     :    -0.000001
      f+3     :    -0.000005
      f-3     :     0.000006


                      *****************************
                      * MAYER POPULATION ANALYSIS *
                      *****************************

  NA   - Mulliken gross atomic population
  ZA   - Total nuclear charge
  QA   - Mulliken gross atomic charge
  VA   - Mayer's total valence
  BVA  - Mayer's bonded valence
  FA   - Mayer's free valence

  ATOM       NA         ZA         QA         VA         BVA        FA
  0 Np    90.8890    93.0000     2.1110     6.5484     2.8044     3.7440
  1 F      9.5277     9.0000    -0.5277     1.1179     0.7141     0.4038
  2 F      9.5278     9.0000    -0.5278     1.1173     0.7129     0.4044
  3 F      9.5277     9.0000    -0.5277     1.1179     0.7142     0.4038
  4 F      9.5279     9.0000    -0.5279     1.1173     0.7129     0.4044

  Mayer bond orders larger than 0.1
B(  0-Np,  1-F ) :   0.7023 B(  0-Np,  2-F ) :   0.6998 B(  0-Np,  3-F ) :   0.7024 
B(  0-Np,  4-F ) :   0.6999 


----------------------------------
MP2 DERIVATIVE INTEGRAL GENERATION
----------------------------------


Input Wavefunction Amplitudes       ... /home/nikolayandreadi_2125/_scratch/MP2/NpF4.mp2tbb.tmp.proc19
Input Correlated Electron Density   ... /home/nikolayandreadi_2125/_scratch/MP2/NpF4.pmp2re
Input Energy Weighted Density       ... /home/nikolayandreadi_2125/_scratch/MP2/NpF4.wmp2.tmp
Input SCF Electron Density          ... /home/nikolayandreadi_2125/_scratch/MP2/NpF4.scfp.tmp

One-Electron Terms    ...
                        ... One-Electron Terms done
Prescreening matrices              ... done

Batch handling in the gradient evaluation:
Memory available                      ... 31500.0 MB
Memory per occupied orbital in Q2     ...   33.3 MB
Memory per occupied orbital in Q3     ...    0.1 MB
Total memory requirement per |i>      ...   33.4 MB
Max. Number of orbitals possible      ...    942
Number of orbitals treated per batch  ...     53
Number of batches to be done          ...      1
Batch   0: i=   38 ...    90

---------------------------------------
MP2 TOTAL ENERGY:   -29136.317548965 Eh
---------------------------------------

-----------------------------------
NORM OF THE MP2 GRADIENT:  0.000029
-----------------------------------

-------------------------   --------------------
FINAL SINGLE POINT ENERGY    -29136.317548964817
-------------------------   --------------------

                                *** OPTIMIZATION RUN DONE ***

                            ***************************************
                            *     ORCA property calculations      *
                            ***************************************

                                    ---------------------
                                    Active property flags
                                    ---------------------
   (+) Dipole Moment


------------------------------------------------------------------------------
                       ORCA ELECTRIC PROPERTIES CALCULATION
------------------------------------------------------------------------------

Dipole Moment Calculation                       ... on
Quadrupole Moment Calculation                   ... off
Polarizability Calculation                      ... off
GBWName                                         ... /home/nikolayandreadi_2125/_scratch/MP2/NpF4.gbw
Electron density file                           ... /home/nikolayandreadi_2125/_scratch/MP2/NpF4.scfp.tmp
The origin for moment calculation is the CENTER OF MASS  = (-0.013028,  0.010010  0.017013)

-------------
DIPOLE MOMENT
-------------
                                X             Y             Z
Electronic contribution:     -0.15949       0.12267       0.20834
Nuclear contribution   :      0.10953      -0.08415      -0.14303
                        -----------------------------------------
Total Dipole Moment    :     -0.04996       0.03852       0.06531
                        -----------------------------------------
Magnitude (a.u.)       :      0.09080
Magnitude (Debye)      :      0.23080


                         *** MP2 UNRELAXED DENSITY ***

------------------------------------------------------------------------------
                       ORCA ELECTRIC PROPERTIES CALCULATION
------------------------------------------------------------------------------

Dipole Moment Calculation                       ... on
Quadrupole Moment Calculation                   ... off
Polarizability Calculation                      ... off
GBWName                                         ... /home/nikolayandreadi_2125/_scratch/MP2/NpF4.gbw
Electron density file                           ... /home/nikolayandreadi_2125/_scratch/MP2/NpF4.pmp2ur
The origin for moment calculation is the CENTER OF MASS  = (-0.013028,  0.010010  0.017013)

-------------
DIPOLE MOMENT
-------------
                                X             Y             Z
Electronic contribution:     -0.15787       0.12143       0.20623
Nuclear contribution   :      0.10953      -0.08415      -0.14303
                        -----------------------------------------
Total Dipole Moment    :     -0.04835       0.03728       0.06320
                        -----------------------------------------
Magnitude (a.u.)       :      0.08787
Magnitude (Debye)      :      0.22336


                           *** MP2 RELAXED DENSITY ***

------------------------------------------------------------------------------
                       ORCA ELECTRIC PROPERTIES CALCULATION
------------------------------------------------------------------------------

Dipole Moment Calculation                       ... on
Quadrupole Moment Calculation                   ... off
Polarizability Calculation                      ... off
GBWName                                         ... /home/nikolayandreadi_2125/_scratch/MP2/NpF4.gbw
Electron density file                           ... /home/nikolayandreadi_2125/_scratch/MP2/NpF4.pmp2re
The origin for moment calculation is the CENTER OF MASS  = (-0.013028,  0.010010  0.017013)

-------------
DIPOLE MOMENT
-------------
                                X             Y             Z
Electronic contribution:     -0.15153       0.11640       0.19788
Nuclear contribution   :      0.10953      -0.08415      -0.14303
                        -----------------------------------------
Total Dipole Moment    :     -0.04201       0.03226       0.05485
                        -----------------------------------------
Magnitude (a.u.)       :      0.07624
Magnitude (Debye)      :      0.19380


Timings for individual modules:

Sum of individual times         ...    10697.853 sec (= 178.298 min)
GTO integral calculation        ...       17.678 sec (=   0.295 min)   0.2 %
Relativistic integrals          ...        5.281 sec (=   0.088 min)   0.0 %
SCF iterations                  ...     2222.600 sec (=  37.043 min)  20.8 %
MP2 module                      ...     8451.948 sec (= 140.866 min)  79.0 %
Geometry relaxation             ...        0.345 sec (=   0.006 min)   0.0 %
                             ****ORCA TERMINATED NORMALLY****
TOTAL RUN TIME: 0 days 2 hours 58 minutes 26 seconds 392 msec
