
                                 *****************
                                 * O   R   C   A *
                                 *****************

           --- An Ab Initio, DFT and Semiempirical electronic structure package ---

                  #######################################################
                  #                        -***-                        #
                  #  Department of molecular theory and spectroscopy    #
                  #              Directorship: Frank Neese              #
                  # Max Planck Institute for Chemical Energy Conversion #
                  #                  D-45470 Muelheim/Ruhr              #
                  #                       Germany                       #
                  #                                                     #
                  #                  All rights reserved                #
                  #                        -***-                        #
                  #######################################################


                         Program Version 4.0.1.2 - RELEASE -


 With contributions from (in alphabetic order):
   Daniel Aravena         : Magnetic Properties
   Michael Atanasov       : Ab Initio Ligand Field Theory
   Ute Becker             : Parallelization
   Martin Brehm           : Molecular dynamics
   Dmytro Bykov           : SCF Hessian
   Vijay G. Chilkuri      : MRCI spin determinant printing
   Dipayan Datta          : RHF DLPNO-CCSD density
   Achintya Kumar Dutta   : EOM-CC, STEOM-CC
   Dmitry Ganyushin       : Spin-Orbit,Spin-Spin,Magnetic field MRCI
   Yang Guo               : DLPNO-NEVPT2, CIM, IAO-localization
   Andreas Hansen         : Spin unrestricted coupled pair/coupled cluster methods
   Lee Huntington         : MR-EOM, pCC
   Robert Izsak           : Overlap fitted RIJCOSX, COSX-SCS-MP3, EOM
   Christian Kollmar      : KDIIS, OOCD, Brueckner-CCSD(T), CCSD density
   Simone Kossmann        : Meta GGA functionals, TD-DFT gradient, OOMP2, MP2 Hessian
   Martin Krupicka        : AUTO-CI
   Dagmar Lenk            : GEPOL surface
   Dimitrios Liakos       : Extrapolation schemes; parallel MDCI
   Dimitrios Manganas     : ROCIS; embedding schemes
   Dimitrios Pantazis     : SARC Basis sets
   Taras Petrenko         : DFT Hessian,TD-DFT gradient, ASA, ECA, R-Raman, ABS, FL, XAS/XES, NRVS
   Peter Pinski           : DLPNO-MP2
   Christoph Reimann      : Effective Core Potentials
   Marius Retegan         : Local ZFS, SOC
   Christoph Riplinger    : Optimizer, TS searches, QM/MM, DLPNO-CCSD(T), (RO)-DLPNO pert. Triples
   Tobias Risthaus        : Range-separated hybrids, TD-DFT gradient, RPA, STAB
   Michael Roemelt        : Restricted open shell CIS
   Masaaki Saitow         : Open-shell DLPNO
   Barbara Sandhoefer     : DKH picture change effects
   Kantharuban Sivalingam : CASSCF convergence, NEVPT2, FIC-MRCI
   Georgi Stoychev        : AutoAux
   Boris Wezisla          : Elementary symmetry handling
   Frank Wennmohs         : Technical directorship


 We gratefully acknowledge several colleagues who have allowed us to
 interface, adapt or use parts of their codes:
   Stefan Grimme, W. Hujo, H. Kruse,             : VdW corrections, initial TS optimization,
                  C. Bannwarth                     DFT functionals, gCP, sTDA/sTD-DF
   Ed Valeev                                     : LibInt (2-el integral package), F12 methods
   Garnet Chan, S. Sharma, J. Yang, R. Olivares  : DMRG
   Ulf Ekstrom                                   : XCFun DFT Library
   Mihaly Kallay                                 : mrcc  (arbitrary order and MRCC methods)
   Andreas Klamt, Michael Diedenhofen            : otool_cosmo (COSMO solvation model)
   Jiri Pittner, Ondrej Demel                    : Mk-CCSD
   Frank Weinhold                                : gennbo (NPA and NBO analysis)
   Christopher J. Cramer and Donald G. Truhlar   : smd solvation model


 Your calculation uses the libint2 library for the computation of 2-el integrals
 For citations please refer to: http://libint.valeyev.net

 This ORCA versions uses:
   CBLAS   interface :  Fast vector & matrix operations
   LAPACKE interface :  Fast linear algebra routines
   SCALAPACK package :  Parallel linear algebra routines


Your calculation utilizes the basis: DKH-def2-TZVP
   Exponents from def2-TZVP [F. Weigend and R. Ahlrichs, Phys. Chem. Chem. Phys. 7, 3297 (2005)],
   recontracted for DKH2 by D. A. Pantazis.

Your calculation utilizes the auxiliary basis: SARC/J 
   decontracted def2/J up to Kr:
   F. Weigend, Phys. Chem. Chem. Phys. 8, 1057 (2006)
   and SARC auxiliary basis sets beyond Kr:
   D. A. Pantazis and F. Neese, J. Chem. Theory Comput. 5, 2229 (2009).
   D. A. Pantazis, X. Y. Chen, C. R. Landis and F. Neese, J. Chem. Theory Comput. 4, 908 (2008).
   D. A. Pantazis and F. Neese, Theor. Chem. Acc. 131, 1292 (2012).
   D. A. Pantazis and F. Neese, J. Chem. Theory Comput. 7, 677 (2011).

================================================================================
                                        WARNINGS
                       Please study these warnings very carefully!
================================================================================

Warning: TCutStore was < 0. Adjusted to Thresh (uncritical)

WARNING: your system is open-shell and RHF/RKS was chosen
  ===> : WILL SWITCH to UHF/UKS


WARNING: In scalar relativistic gradient/hessian runs we need the one-center approximation
  ===> : %rel OneCenter is turned on

WARNING: The frozen-core approximation for MP2-gradient calculations is turned on by default.

WARNING: Geometry Optimization
  ===> : Switching off AutoStart
         For restart on a previous wavefunction, please use MOREAD

WARNING: Post HF methods need fully converged wavefunctions
  ===> : Setting SCFConvForced true
         You can overwrite this default with %scf ConvForced false 


INFO   : the flag for use of LIBINT has been found!

================================================================================
                                       INPUT FILE
================================================================================
NAME = /home/nikolayandreadi_2125/_scratch/MP2/NpF6.inp
|  1> !Opt MP2 DKH-def2-TZVP DKH SARC/J SlowConv
|  2> 
|  3> %pal
|  4> nproc 42
|  5> end
|  6> 
|  7> %maxcore 13500
|  8> 
|  9> %basis
| 10> newgto Np "SARC-DKH-TZVP" end
| 11> end
| 12> 
| 13> %scf
| 14> MaxIter 2000
| 15> Guess HCore
| 16> end
| 17> 
| 18> %method
| 19> Z_MaxIter 5000
| 20> end
| 21> 
| 22> %geom
| 23>     MaxIter 200
| 24> end
| 25> 
| 26> * xyz 0 2
| 27>   Np    -0.000326   -0.000109   -0.000348
| 28>   F      0.000268    0.000094    1.974325
| 29>   F      0.000278    0.000092   -1.975152
| 30>   F      0.000276   -1.974866    0.000293
| 31>   F      0.000281    1.974610    0.000295
| 32>   F     -1.975126    0.000087    0.000299
| 33>   F      1.974351    0.000092    0.000288
| 34>   **                         ****END OF INPUT****
================================================================================

                       *****************************
                       * Geometry Optimization Run *
                       *****************************

Geometry optimization settings:
Update method            Update   .... BFGS
Choice of coordinates    CoordSys .... Redundant Internals
Initial Hessian          InHess   .... Almoef's Model

Convergence Tolerances:
Energy Change            TolE     ....  5.0000e-06 Eh
Max. Gradient            TolMAXG  ....  3.0000e-04 Eh/bohr
RMS Gradient             TolRMSG  ....  1.0000e-04 Eh/bohr
Max. Displacement        TolMAXD  ....  4.0000e-03 bohr
RMS Displacement         TolRMSD  ....  2.0000e-03 bohr

------------------------------------------------------------------------------
                        ORCA OPTIMIZATION COORDINATE SETUP
------------------------------------------------------------------------------

The optimization will be done in new redundant internal coordinates
Making redundant internal coordinates   ...  (new redundants) done
Evaluating the initial hessian          ...  (Almloef) done
Evaluating the coordinates              ...  done
Calculating the B-matrix                .... done
Calculating the G-matrix                .... done
Diagonalizing the G-matrix              .... done
The first mode is                       ....    3
The number of degrees of freedom        ....   15

    -----------------------------------------------------------------
                    Redundant Internal Coordinates


    -----------------------------------------------------------------
         Definition                    Initial Value    Approx d2E/dq
    -----------------------------------------------------------------
      1. B(F   1,Np  0)                  1.9747         0.204010   
      2. B(F   2,Np  0)                  1.9748         0.203912   
      3. B(F   3,Np  0)                  1.9748         0.203947   
      4. B(F   4,Np  0)                  1.9747         0.203976   
      5. B(F   5,Np  0)                  1.9748         0.203915   
      6. B(F   6,Np  0)                  1.9747         0.204007   
      7. A(F   2,Np  0,F   3)           90.0244         0.329018   
      8. A(F   1,Np  0,F   4)           89.9754         0.329051   
      9. A(F   2,Np  0,F   4)           90.0128         0.329025   
     10. A(F   1,Np  0,F   5)           89.9985         0.329035   
     11. A(F   2,Np  0,F   5)           90.0363         0.329009   
     12. A(F   3,Np  0,F   5)           90.0231         0.329018   
     13. A(F   4,Np  0,F   5)           90.0119         0.329026   
     14. A(F   1,Np  0,F   6)           89.9643         0.329060   
     15. A(F   2,Np  0,F   6)           90.0009         0.329034   
     16. A(F   3,Np  0,F   6)           89.9884         0.329043   
     17. A(F   4,Np  0,F   6)           89.9766         0.329050   
     18. A(F   1,Np  0,F   3)           89.9873         0.329044   
    -----------------------------------------------------------------

Number of atoms                         .... 7
Number of degrees of freedom            .... 18

         *************************************************************
         *                GEOMETRY OPTIMIZATION CYCLE   1            *
         *************************************************************
---------------------------------
CARTESIAN COORDINATES (ANGSTROEM)
---------------------------------
  Np    -0.000326   -0.000109   -0.000348
  F      0.000268    0.000094    1.974325
  F      0.000278    0.000092   -1.975152
  F      0.000276   -1.974866    0.000293
  F      0.000281    1.974610    0.000295
  F     -1.975126    0.000087    0.000299
  F      1.974351    0.000092    0.000288

----------------------------
CARTESIAN COORDINATES (A.U.)
----------------------------
  NO LB      ZA    FRAG     MASS         X           Y           Z
   0 Np   93.0000    0   237.048   -0.000616   -0.000206   -0.000658
   1 F     9.0000    0    18.998    0.000506    0.000178    3.730934
   2 F     9.0000    0    18.998    0.000525    0.000174   -3.732496
   3 F     9.0000    0    18.998    0.000522   -3.731956    0.000554
   4 F     9.0000    0    18.998    0.000531    3.731472    0.000557
   5 F     9.0000    0    18.998   -3.732447    0.000164    0.000565
   6 F     9.0000    0    18.998    3.730983    0.000174    0.000544

--------------------------------
INTERNAL COORDINATES (ANGSTROEM)
--------------------------------
 Np     0   0   0     0.000000000000     0.00000000     0.00000000
 F      1   0   0     1.974673099775     0.00000000     0.00000000
 F      1   2   0     1.974804102597   179.96331755     0.00000000
 F      1   2   3     1.974757195792    89.98728683   108.61812942
 F      1   2   4     1.974719197977    89.97544817   180.03506717
 F      1   2   5     1.974800115714    89.99846281   269.98808020
 F      1   2   5     1.974677112651    89.96431059    89.97656532

---------------------------
INTERNAL COORDINATES (A.U.)
---------------------------
 Np     0   0   0     0.000000000000     0.00000000     0.00000000
 F      1   0   0     3.731591362596     0.00000000     0.00000000
 F      1   2   0     3.731838922052   179.96331755     0.00000000
 F      1   2   3     3.731750281038    89.98728683   108.61812942
 F      1   2   4     3.731678475573    89.97544817   180.03506717
 F      1   2   5     3.731831387936    89.99846281   269.98808020
 F      1   2   5     3.731598945832    89.96431059    89.97656532

---------------------
BASIS SET INFORMATION
---------------------
There are 2 groups of distinct atoms

 Group   1 Type Np  : 29s20p16d12f contracted to 21s13p10d7f pattern {911111111111111111111/8111111111111/7111111111/6111111}
 Group   2 Type F   : 11s6p2d1f contracted to 6s3p2d1f pattern {611111/411/11/1}

Atom   0Np   basis set group =>   1
Atom   1F    basis set group =>   2
Atom   2F    basis set group =>   2
Atom   3F    basis set group =>   2
Atom   4F    basis set group =>   2
Atom   5F    basis set group =>   2
Atom   6F    basis set group =>   2

INFORMATION: There is an auxiliary basis set but the global RI flag is NOT set

-------------------------------
AUXILIARY BASIS SET INFORMATION
-------------------------------
There are 2 groups of distinct atoms

 Group   1 Type Np  : 33s10p8d6f4g2h1i contracted to 33s10p8d6f4g2h1i pattern {111111111111111111111111111111111/1111111111/11111111/111111/1111/11/1}
 Group   2 Type F   : 12s5p4d2f1g contracted to 12s5p4d2f1g pattern {111111111111/11111/1111/11/1}

Atom   0Np   basis set group =>   1
Atom   1F    basis set group =>   2
Atom   2F    basis set group =>   2
Atom   3F    basis set group =>   2
Atom   4F    basis set group =>   2
Atom   5F    basis set group =>   2
Atom   6F    basis set group =>   2


           ************************************************************
           *        Program running with 42 parallel MPI-processes    *
           *              working on a common directory               *
           ************************************************************
------------------------------------------------------------------------------
                           ORCA GTO INTEGRAL CALCULATION
------------------------------------------------------------------------------

                         BASIS SET STATISTICS AND STARTUP INFO

 # of primitive gaussian shells          ...  197
 # of primitive gaussian functions       ...  529
 # of contracted shells                  ...  123
 # of contracted basis functions         ...  351
 Highest angular momentum                ...    3
 Maximum contraction depth               ...    9
 Integral package used                   ... LIBINT
 Integral threshhold            Thresh   ...  2.500e-11
 Primitive cut-off              TCut     ...  2.500e-12


------------------------------ INTEGRAL EVALUATION ----------------------------


 * One electron integrals 
 Pre-screening matrix                    ... done
 Shell pair data                         ... done (   0.002 sec)

------------------------------------------------------------------------------
                          ORCA RELATIVISTIC HAMILTONIAN
------------------------------------------------------------------------------

Relativistic Method            ... DKH
Order of DKH treatment         ...   2
Treatment of potential         ... V(e,N)
Eps parameter for DKH          ...   0.00000000010000
Nucleus model                  ... Point Nucleus
Speed of light used            ... 137.03598950000000


            ************************************************
            *        DOUGLAS-KROLL-HESS HAMILTONIAN        *
            *   Programmed by FN according to literature   *
            *        procedures. Special thanks to         *
            *       B.A. Hess, M. Reiher and A. Wolf       *
            *     University Erlangen-Nuernberg/Bonn       *
            ************************************************

Uncontracting the basis (first version)        ... done
Number of contracted basis functions           ...  351
Number of uncontracted basis functions         ...  529
Initializing the DKH file                      ... done
One center approximation for DKH is active
Finding unique atoms                      ... 2 atom types
 ATOMIC NUMBER  93
          ... doing integrals          ... Computing the DKH transformation
          ... Transforming V and pVp to p**2 space
          ... First transformation of V and pVp
          ... Second transformation of Veff
          ... Adding kinetic energy
          ... Back transformation of Veff to r-space
          ... Recontracting the H-matrix
          ... Computing the DKH correction to the H-matrix
          ... adding submatrics to 1 actual atoms
 ATOMIC NUMBER   9
          ... doing integrals          ... Computing the DKH transformation
          ... Transforming V and pVp to p**2 space
          ... First transformation of V and pVp
          ... Second transformation of Veff
          ... Adding kinetic energy
          ... Back transformation of Veff to r-space
          ... Recontracting the H-matrix
          ... Computing the DKH correction to the H-matrix
          ... adding submatrics to 6 actual atoms
Storing DKH matrices                           ... done
Getting S**(-1/2)                              ... done
Reading the original H-matrix                  ... done
Adding DKH correction to the H-matrix          ... done
Storing the new modified H-matrix              ... done


           ************************************************************
           *        Program running with 42 parallel MPI-processes    *
           *              working on a common directory               *
           ************************************************************
-------------------------------------------------------------------------------
                                 ORCA SCF
-------------------------------------------------------------------------------

------------
SCF SETTINGS
------------
Hamiltonian:
 Ab initio Hamiltonian  Method          .... Hartree-Fock(GTOs)

Relativistic Settings:
 Scalar relativistic method             .... Douglas-Kroll-Hess
 Order of DKH procedure    Order        ....    2
 Mode of DKH-treatment                  .... V=V(e,N)
 Speed of light used       Velit        ....       137.035989
 Cutoff-constant           Eps          ....            1e-10 


General Settings:
 Integral files         IntName         .... /home/nikolayandreadi_2125/_scratch/MP2/NpF6
 Hartree-Fock type      HFTyp           .... UHF
 Total Charge           Charge          ....    0
 Multiplicity           Mult            ....    2
 Number of Electrons    NEL             ....  147
 Basis Dimension        Dim             ....  351
 Nuclear Repulsion      ENuc            ....   1562.5008952946 Eh

Convergence Acceleration:
 DIIS                   CNVDIIS         .... on
   Start iteration      DIISMaxIt       ....     0
   Startup error        DIISStart       ....  0.200000
   # of expansion vecs  DIISMaxEq       ....     5
   Bias factor          DIISBfac        ....   1.050
   Max. coefficient     DIISMaxC        ....  10.000
 Newton-Raphson         CNVNR           .... off
 SOSCF                  CNVSOSCF        .... off
 Level Shifting         CNVShift        .... on
   Level shift para.    LevelShift      ....    0.2500
   Turn off err/grad.   ShiftErr        ....    0.0000
 Zerner damping         CNVZerner       .... off
 Static damping         CNVDamp         .... on
   Fraction old density DampFac         ....    0.8500
   Max. Damping (<1)    DampMax         ....    0.9800
   Min. Damping (>=0)   DampMin         ....    0.0000
   Turn off err/grad.   DampErr         ....    0.0300
 Fernandez-Rico         CNVRico         .... off

SCF Procedure:
 Maximum # iterations   MaxIter         ....  2000
 SCF integral mode      SCFMode         .... Direct
   Integral package                     .... LIBINT
 Reset frequeny         DirectResetFreq ....    20
 Integral Threshold     Thresh          ....  2.500e-11 Eh
 Primitive CutOff       TCut            ....  2.500e-12 Eh

Convergence Tolerance:
 Convergence Check Mode ConvCheckMode   .... Total+1el-Energy
 Convergence forced     ConvForced      .... 1
 Energy Change          TolE            ....  1.000e-08 Eh
 1-El. energy change                    ....  1.000e-05 Eh
 DIIS Error             TolErr          ....  5.000e-07


Diagonalization of the overlap matrix:
Smallest eigenvalue                        ... 4.358e-04
Time for diagonalization                   ...    0.040 sec
Threshold for overlap eigenvalues          ... 1.000e-08
Number of eigenvalues below threshold      ... 0
Time for construction of square roots      ...    0.037 sec
Total time needed                          ...    0.077 sec

--------------------
INITIAL GUESS: HCORE
--------------------
                      -----------------
                      INTIAL GUESS DONE 
                      -----------------
--------------
SCF ITERATIONS
--------------
ITER       Energy         Delta-E        Max-DP      RMS-DP      [F,P]     Damp
               ***  Starting incremental Fock matrix formation  ***
  0 -22138.4303379704   0.00000000000021.43781984  0.14025153 75.5228213 0.8500
  1 -24139.0185604871-2000.58822251671515.35254527  0.11162916 61.4444164 0.8500
                               ***Turning on DIIS***
  2 -25393.8232287847-1254.80466829767511.66230207  0.08317872 50.4435182 0.8500
  3 -28219.7154417400-2825.892212955267 7.28065737  0.06068951 41.4537611 0.8500
  4 -28238.5647359979 -18.849294257878 6.18664473  0.05193845 34.7720819 0.8500
  5 -28448.9462999852-210.381563987357 5.25444702  0.04413618 29.3603278 0.8500
  6 -28581.8836553769-132.937355391638 4.46216400  0.03752444 24.8692959 0.8500
  7 -28469.9984006797 111.885254697161 3.79357046  0.03214778 21.0862344 0.8500
  8 -28729.7012229319-259.702822252148 3.22201146  0.02717492 17.8402365 0.8500
  9 -28832.6726382467-102.971415314852 2.73904411  0.02307268 15.1217322 0.8500
 10 -28901.7981523219 -69.125514075175 2.32903892  0.01961385 12.8286752 0.8500
 11 -28959.4255394738 -57.627387151882 1.98011291  0.01667352 10.8859138 0.8500
 12 -29007.1411218114 -47.715582337591 1.68326951  0.01417404  9.2378098 0.8500
 13 -29057.8415922744 -50.700470463020 1.43080900  0.01204105  7.8385084 0.8500
 14 -29098.4967888782 -40.655196603835 1.21625107  0.01023236  6.6521189 0.8500
 15 -29130.9984539785 -32.501665100288 1.03394355  0.00869798  5.6453133 0.8500
 16 -29158.7648531670 -27.766399188520 0.87895416  0.00739373  4.7904540 0.8500
 17 -29183.0141577010 -24.249304533925 0.74715255  0.00628463  4.0645920 0.8500
 18 -29204.0977596311 -21.083601930110 0.63507764  0.00534202  3.4483330 0.8500
 19 -29221.8635748533 -17.765815222265 0.53979969  0.00454170  2.9251969 0.8500
               *** Restarting incremental Fock matrix formation ***
                                   *** Resetting DIIS ***
 20 -29149.3789827085  72.484592144792 0.48390427  0.00397583  2.4811494 0.8500
 21 -29217.3547346832 -67.975751974700 0.38966615  0.00329687  2.0474778 0.8500
 22 -29250.4529105841 -33.098175900821 0.33091122  0.00277795  1.7106710 0.8500
 23 -29264.9789877778 -14.526077193754 0.28139477  0.00235887  1.4404216 0.8500
 24 -29274.0399705920  -9.060982814175 0.23939561  0.00200685  1.2183168 0.8500
 25 -29279.0690868250  -5.029116233040 0.20362331  0.00171004  1.0328737 0.8500
 26 -29285.8227067501  -6.753619925024 0.17311524  0.00145523  0.8759364 0.8500
 27 -29293.7012961971  -7.878589447071 0.14710722  0.00123628  0.7427484 0.8500
 28 -29300.1231612071  -6.421865009954 0.12500208  0.00105067  0.6298620 0.8500
 29 -29304.9756558940  -4.852494686944 0.10624296  0.00089360  0.5341580 0.8500
 30 -29308.8684036145  -3.892747720489 0.09031257  0.00076024  0.4530004 0.8500
 31 -29312.3495703720  -3.481166757447 0.07676839  0.00064659  0.3841687 0.8500
 32 -29315.5044733819  -3.154903009985 0.06524944  0.00054973  0.3257969 0.8500
 33 -29318.2101261196  -2.705652737663 0.05545804  0.00046737  0.2763033 0.8500
 34 -29320.4569212709  -2.246795151248 0.04713892  0.00039743  0.2343356 0.8500
 35 -29322.3390546133  -1.882133342413 0.04007028  0.00033801  0.1987455 0.8500
 36 -29323.9543944647  -1.615339851462 0.03406223  0.00028747  0.1685617 0.8500
 37 -29325.3525310949  -1.398136630200 0.02895472  0.00024447  0.1429633 0.8500
 38 -29326.5512526300  -1.198721535071 0.02461308  0.00020791  0.1212543 0.8500
 39 -29327.5688698869  -1.017617256952 0.02092291  0.00017684  0.1028435 0.8500
               *** Restarting incremental Fock matrix formation ***
                                   *** Resetting DIIS ***
 40 -29326.3328341753   1.236035711652 0.01778807  0.00015198  0.0872292 0.8500
 41 -29328.3899005089  -2.057066333567 0.01510813  0.00012758  0.0721534 0.8500
 42 -29329.6330164377  -1.243115928832 0.01283788  0.00010804  0.0603328 0.8500
 43 -29330.2502392050  -0.617222767349 0.01091862  0.00009201  0.0508964 0.8500
 44 -29330.6933284705  -0.443089265409 0.00928823  0.00007848  0.0431317 0.8500
 45 -29330.9837217821  -0.290393311643 0.00790052  0.00006704  0.0366195 0.8500
 46 -29331.3388639199  -0.355142137782 0.00671816  0.00005722  0.0310726 0.8500
 47 -29331.6883197823  -0.349455862426 0.03807665  0.00032556  0.0263585 0.0000
 48 -29333.4811170807  -1.792797298407 0.00217452  0.00001676  0.0060623 0.0000
 49 -29333.4897540220  -0.008636941267 0.00201295  0.00001439  0.0061725 0.0000
 50 -29333.4767080265   0.013045995511 0.00226312  0.00001502  0.0062936 0.0000
 51 -29333.4928040832  -0.016096056705 0.00087473  0.00000571  0.0064203 0.0000
 52 -29333.4924549660   0.000349117141 0.00006699  0.00000061  0.0065222 0.0000
 53 -29333.4879998120   0.004455153994 0.00045478  0.00000296  0.0065657 0.0000
 54 -29333.4888997406  -0.000899928604 0.00100637  0.00000636  0.0065798 0.0000
 55 -29333.4852717360   0.003628004648 0.00143382  0.00000894  0.0066183 0.0000
 56 -29333.4847055661   0.000566169881 0.00056301  0.00000354  0.0066825 0.0000
 57 -29333.4884248269  -0.003719260789 0.00031050  0.00000194  0.0067489 0.0000
 58 -29333.4873608378   0.001063989068 0.00084223  0.00000509  0.0067822 0.0000
 59 -29333.4858341833   0.001526654491 0.00109036  0.00000656  0.0068092 0.0000
               *** Restarting incremental Fock matrix formation ***
                                   *** Resetting DIIS ***
 60 -29333.4800703367   0.005763846613 0.00261128  0.00001538  0.0068535 0.0000
 61 -29333.4823721589  -0.002301822202 0.00210991  0.00001230  0.0069295 0.0000
 62 -29333.4900060021  -0.007633843165 0.00043330  0.00000268  0.0070320 0.0000
 63 -29333.4950930689  -0.005087066827 0.00033473  0.00000188  0.0071145 0.0000
 64 -29333.4958933298  -0.000800260881 0.00008280  0.00000049  0.0071362 0.0000
 65 -29333.4851019540   0.010791375771 0.00239059  0.00001356  0.0071294 0.0000
 66 -29333.4835697058   0.001532248207 0.00139624  0.00000799  0.0071535 0.0000
 67 -29333.4869306662  -0.003360960392 0.00006261  0.00000050  0.0072397 0.0000
 68 -29333.4849778918   0.001952774448 0.00079757  0.00000445  0.0072981 0.0000
 69 -29333.4862294607  -0.001251568923 0.00080088  0.00000449  0.0073103 0.0000
 70 -29333.4861983206   0.000031140142 0.00172227  0.00000953  0.0073396 0.0000
 71 -29333.4911235172  -0.004925196637 0.00080607  0.00000454  0.0073755 0.0000
 72 -29333.4938796122  -0.002756095007 0.00044378  0.00000250  0.0074378 0.0000
 73 -29333.4911616374   0.002717974749 0.00108459  0.00000594  0.0074749 0.0000
 74 -29333.4879668368   0.003194800658 0.00121620  0.00000665  0.0074964 0.0000
 75 -29333.4857486914   0.002218145368 0.00127861  0.00000697  0.0075337 0.0000
 76 -29333.4860583476  -0.000309656156 0.00082518  0.00000452  0.0075768 0.0000
 77 -29333.4867165685  -0.000658220968 0.00086817  0.00000470  0.0076235 0.0000
 78 -29333.4877130591  -0.000996490591 0.00119954  0.00000643  0.0076560 0.0000
 79 -29333.4894846701  -0.001771610932 0.00121353  0.00000650  0.0076857 0.0000
               *** Restarting incremental Fock matrix formation ***
                                   *** Resetting DIIS ***
 80 -29333.4823756857   0.007108984410 0.00321395  0.00001698  0.0077240 0.0000
 81 -29333.4833682478  -0.000992562102 0.00278325  0.00001466  0.0077629 0.0000
 82 -29333.4897252479  -0.006357000144 0.00116384  0.00000624  0.0078398 0.0000
 83 -29333.4938623688  -0.004137120890 0.00021400  0.00000108  0.0079250 0.0000
 84 -29333.4952934357  -0.001431066936 0.00004367  0.00000023  0.0079732 0.0000
 85 -29333.4884224829   0.006870952831 0.00261738  0.00001348  0.0079748 0.0000
 86 -29333.4867109899   0.001711493042 0.00212186  0.00001103  0.0079627 0.0000
 87 -29333.4890229901  -0.002312000266 0.00082519  0.00000439  0.0080226 0.0000
 88 -29333.4905438144  -0.001520824313 0.00052474  0.00000275  0.0080902 0.0000
 89 -29333.4893505348   0.001193279655 0.00119413  0.00000611  0.0081222 0.0000
 90 -29333.4880649626   0.001285572140 0.00202658  0.00001032  0.0081323 0.0000
 91 -29333.4895992692  -0.001534306601 0.00172288  0.00000882  0.0081467 0.0000
 92 -29333.4916484371  -0.002049167841 0.00110784  0.00000570  0.0081888 0.0000
 93 -29333.4918735051  -0.000225067994 0.00111087  0.00000566  0.0082344 0.0000
 94 -29333.4905886491   0.001284856015 0.00154179  0.00000779  0.0082611 0.0000
 95 -29333.4894369954   0.001151653691 0.00184204  0.00000929  0.0082774 0.0000
 96 -29333.4897192406  -0.000282245193 0.00170943  0.00000863  0.0082983 0.0000
 97 -29333.4906419058  -0.000922665269 0.00147665  0.00000745  0.0083300 0.0000
 98 -29333.4910644990  -0.000422593177 0.00149801  0.00000752  0.0083625 0.0000
 99 -29333.4909033310   0.000161168009 0.00171151  0.00000856  0.0083866 0.0000
               *** Restarting incremental Fock matrix formation ***
                                   *** Resetting DIIS ***
100 -29333.4856511588   0.005252172228 0.00371738  0.00001843  0.0084047 0.0000
101 -29333.4864556732  -0.000804514439 0.00352702  0.00001751  0.0083935 0.0000
102 -29333.4891664131  -0.002710739860 0.00275667  0.00001374  0.0084170 0.0000
103 -29333.4923431850  -0.003176771890 0.00158849  0.00000798  0.0084606 0.0000
104 -29333.4965267351  -0.004183550147 0.00036216  0.00000194  0.0085131 0.0000
105 -29333.4925680117   0.003958723442 0.00201151  0.00000986  0.0085609 0.0000
106 -29333.4896352162   0.002932795429 0.00286233  0.00001407  0.0085390 0.0000
107 -29333.4893519249   0.000283291381 0.00305930  0.00001507  0.0085234 0.0000
108 -29333.4896184770  -0.000266552132 0.00305980  0.00001509  0.0085216 0.0000
109 -29333.4897983232  -0.000179846251 0.00313067  0.00001543  0.0085248 0.0000
110 -29333.4893788075   0.000419515789 0.00345143  0.00001700  0.0085236 0.0000
111 -29333.4878409413   0.001537866163 0.00418280  0.00002058  0.0085091 0.0000
112 -29333.4849278341   0.002913107171 0.00547178  0.00002692  0.0084716 0.0000
113 -29333.4791596630   0.005768171079 0.00793407  0.00003911  0.0083948 0.0000
114 -29333.4679555445   0.011204118575 0.01241105  0.00006160  0.0082318 0.0000
115 -29333.4587071927   0.009248351809 0.01557424  0.00007909  0.0079652 0.0000
116 -29333.4560524669   0.002654725748 0.01558322  0.00008289  0.0077801 0.0000
117 -29333.4397875716   0.016264895345 0.02007560  0.00011427  0.0073781 0.0000
118 -29333.4695446373  -0.029757065691 0.00822416  0.00005636  0.0066378 0.0000
119 -29333.3812876284   0.088257008858 0.03790581  0.00026806  0.0058042 0.0000
               *** Restarting incremental Fock matrix formation ***
                                   *** Resetting DIIS ***
120 -29333.5013524349  -0.120064806542 0.00320992  0.00002406  0.0121132 0.0000
121 -29333.4983327283   0.003019706630 0.00177639  0.00001596  0.0039903 0.0000
122 -29333.5611894561  -0.062856727753 0.00089725  0.00000794  0.0026910 0.0000
123 -29333.4993532131   0.061836242938 0.00101414  0.00000759  0.0026358 0.0000
124 -29333.5021143940  -0.002761180913 0.00133133  0.00000893  0.0025770 0.0000
125 -29333.5095808907  -0.007466496620 0.00190234  0.00001218  0.0024590 0.0000
126 -29333.5114546103  -0.001873719641 0.00301453  0.00001823  0.0022987 0.0000
127 -29333.5212024504  -0.009747840137 0.00484155  0.00002841  0.0020020 0.0000
128 -29333.5179517450   0.003250705406 0.00394970  0.00002247  0.0017647 0.0000
129 -29333.5165411415   0.001410603560 0.00575599  0.00003201  0.0014796 0.0000
130 -29333.5155032824   0.001037859092 0.00369184  0.00002042  0.0011674 0.0000
131 -29333.5071253403   0.008377942060 0.00433320  0.00002378  0.0008040 0.0000
132 -29333.5054161309   0.001709209402 0.00180595  0.00001042  0.0005417 0.0000
133 -29333.5007817525   0.004634378383 0.00075636  0.00000503  0.0002949 0.0000
134 -29333.5012150124  -0.000433259880 0.00008636  0.00000124  0.0001215 0.0000
135 -29333.5036100287  -0.002395016290 0.00007854  0.00000078  0.0000573 0.0000
136 -29333.5024789561   0.001131072553 0.00004816  0.00000062  0.0000478 0.0000
137 -29333.5022317769   0.000247179247 0.00006791  0.00000077  0.0000482 0.0000
138 -29333.5009687274   0.001263049482 0.00010240  0.00000110  0.0000443 0.0000
139 -29333.5012402831  -0.000271555691 0.00005350  0.00000072  0.0000371 0.0000
               *** Restarting incremental Fock matrix formation ***
                                   *** Resetting DIIS ***
140 -29333.5025797424  -0.001339459250 0.00001043  0.00000012  0.0000307 0.0000
141 -29333.5025342652   0.000045477169 0.00001188  0.00000011  0.0000292 0.0000
142 -29333.5022922427   0.000242022441 0.00002373  0.00000020  0.0000273 0.0000
143 -29333.5022929926  -0.000000749817 0.00003364  0.00000027  0.0000231 0.0000
144 -29333.5021888472   0.000104145322 0.00003137  0.00000024  0.0000172 0.0000
145 -29333.5022885168  -0.000099669604 0.00001544  0.00000011  0.0000135 0.0000
146 -29333.5023756624  -0.000087145585 0.00002317  0.00000015  0.0000109 0.0000
147 -29333.5024383094  -0.000062646970 0.00001567  0.00000010  0.0000101 0.0000
148 -29333.5025050099  -0.000066700522 0.00001825  0.00000011  0.0000097 0.0000
149 -29333.5025569802  -0.000051970303 0.00001628  0.00000011  0.0000089 0.0000
150 -29333.5025866391  -0.000029658884 0.00001653  0.00000010  0.0000080 0.0000
151 -29333.5026711993  -0.000084560201 0.00002033  0.00000012  0.0000070 0.0000
152 -29333.5026459485   0.000025250822 0.00001011  0.00000006  0.0000058 0.0000
153 -29333.5026593144  -0.000013365905 0.00002223  0.00000013  0.0000045 0.0000
154 -29333.5026717469  -0.000012432527 0.00000977  0.00000005  0.0000033 0.0000
155 -29333.5026304127   0.000041334202 0.00000655  0.00000003  0.0000019 0.0000
156 -29333.5025952411   0.000035171572 0.00000230  0.00000002  0.0000016 0.0000
157 -29333.5025815789   0.000013662291 0.00000092  0.00000001  0.0000013 0.0000
                            ***DIIS convergence achieved***

               *****************************************************
               *                     SUCCESS                       *
               *           SCF CONVERGED AFTER 158 CYCLES          *
               *****************************************************


----------------
TOTAL SCF ENERGY
----------------

Total Energy       :       -29333.50256132 Eh         -798205.18466 eV

Components:
Nuclear Repulsion  :         1562.50089529 Eh           42517.81092 eV
Electronic Energy  :       -30896.00345662 Eh         -840722.99559 eV
One Electron Energy:       -42917.64702981 Eh        -1167848.54795 eV
Two Electron Energy:        12021.64357319 Eh          327125.55237 eV

Virial components:
Potential Energy   :       -84293.77915055 Eh        -2293750.34270 eV
Kinetic Energy     :        54960.27658923 Eh         1495545.15804 eV
Virial Ratio       :            1.53372189


---------------
SCF CONVERGENCE
---------------

  Last Energy change         ...    2.0258e-05  Tolerance :   1.0000e-08
  Last MAX-Density change    ...    1.8406e-06  Tolerance :   1.0000e-07
  Last RMS-Density change    ...    1.4581e-08  Tolerance :   5.0000e-09
  Last DIIS Error            ...    9.9862e-07  Tolerance :   5.0000e-07

             **** THE GBW FILE WAS UPDATED (/home/nikolayandreadi_2125/_scratch/MP2/NpF6.gbw) ****
             **** DENSITY FILE WAS UPDATED (/home/nikolayandreadi_2125/_scratch/MP2/NpF6.scfp.tmp) ****
             **** ENERGY FILE WAS UPDATED (/home/nikolayandreadi_2125/_scratch/MP2/NpF6.en.tmp) ****
----------------------
UHF SPIN CONTAMINATION
----------------------

Expectation value of <S**2>     :     0.815001
Ideal value S*(S+1) for S=0.5   :     0.750000
Deviation                       :     0.065001

----------------
ORBITAL ENERGIES
----------------
                 SPIN UP ORBITALS
  NO   OCC          E(Eh)            E(eV) 
   0   1.0000   -4373.770927   -119016.3576 
   1   1.0000    -829.449260    -22570.4618 
   2   1.0000    -693.775021    -18878.5781 
   3   1.0000    -693.775021    -18878.5781 
   4   1.0000    -693.775021    -18878.5781 
   5   1.0000    -213.899053     -5820.4891 
   6   1.0000    -175.607203     -4778.5149 
   7   1.0000    -175.607203     -4778.5149 
   8   1.0000    -175.607203     -4778.5149 
   9   1.0000    -139.974699     -3808.9052 
  10   1.0000    -139.974699     -3808.9052 
  11   1.0000    -139.974699     -3808.9052 
  12   1.0000    -139.965496     -3808.6548 
  13   1.0000    -139.965496     -3808.6548 
  14   1.0000     -57.016976     -1551.5108 
  15   1.0000     -44.222940     -1203.3674 
  16   1.0000     -44.222940     -1203.3674 
  17   1.0000     -44.222939     -1203.3674 
  18   1.0000     -30.565411      -831.7271 
  19   1.0000     -30.565411      -831.7271 
  20   1.0000     -30.564053      -831.6902 
  21   1.0000     -30.564053      -831.6902 
  22   1.0000     -30.564053      -831.6902 
  23   1.0000     -26.373874      -717.6696 
  24   1.0000     -26.373873      -717.6696 
  25   1.0000     -26.373872      -717.6695 
  26   1.0000     -26.373861      -717.6692 
  27   1.0000     -26.373858      -717.6692 
  28   1.0000     -26.373853      -717.6690 
  29   1.0000     -16.492248      -448.7769 
  30   1.0000     -16.453668      -447.7271 
  31   1.0000     -16.453668      -447.7271 
  32   1.0000     -16.453668      -447.7271 
  33   1.0000     -16.442580      -447.4254 
  34   1.0000     -16.442580      -447.4254 
  35   1.0000     -16.442580      -447.4253 
  36   1.0000     -13.702703      -372.8695 
  37   1.0000      -9.585303      -260.8294 
  38   1.0000      -9.585303      -260.8294 
  39   1.0000      -9.585303      -260.8293 
  40   1.0000      -4.892672      -133.1364 
  41   1.0000      -4.892672      -133.1364 
  42   1.0000      -4.892671      -133.1364 
  43   1.0000      -4.839641      -131.6933 
  44   1.0000      -4.839641      -131.6933 
  45   1.0000      -2.585109       -70.3444 
  46   1.0000      -1.698369       -46.2150 
  47   1.0000      -1.698369       -46.2150 
  48   1.0000      -1.698368       -46.2150 
  49   1.0000      -1.630169       -44.3592 
  50   1.0000      -1.630169       -44.3591 
  51   1.0000      -1.608580       -43.7717 
  52   1.0000      -1.341507       -36.5043 
  53   1.0000      -1.341507       -36.5043 
  54   1.0000      -1.341507       -36.5043 
  55   1.0000      -0.782640       -21.2967 
  56   1.0000      -0.756974       -20.5983 
  57   1.0000      -0.756974       -20.5983 
  58   1.0000      -0.751450       -20.4480 
  59   1.0000      -0.751450       -20.4480 
  60   1.0000      -0.751450       -20.4480 
  61   1.0000      -0.725594       -19.7444 
  62   1.0000      -0.725594       -19.7444 
  63   1.0000      -0.725594       -19.7444 
  64   1.0000      -0.707178       -19.2433 
  65   1.0000      -0.707178       -19.2433 
  66   1.0000      -0.707178       -19.2433 
  67   1.0000      -0.684394       -18.6233 
  68   1.0000      -0.670719       -18.2512 
  69   1.0000      -0.670719       -18.2512 
  70   1.0000      -0.670719       -18.2512 
  71   1.0000      -0.641816       -17.4647 
  72   1.0000      -0.641816       -17.4647 
  73   1.0000      -0.641815       -17.4647 
  74   0.0000      -0.067566        -1.8386 
  75   0.0000      -0.067565        -1.8385 
  76   0.0000      -0.067564        -1.8385 
  77   0.0000      -0.057280        -1.5587 
  78   0.0000      -0.057280        -1.5587 
  79   0.0000      -0.057280        -1.5587 
  80   0.0000       0.026094         0.7100 
  81   0.0000       0.121640         3.3100 
  82   0.0000       0.125949         3.4272 
  83   0.0000       0.125949         3.4273 
  84   0.0000       0.125950         3.4273 
  85   0.0000       0.147148         4.0041 
  86   0.0000       0.147148         4.0041 
  87   0.0000       0.147149         4.0041 
  88   0.0000       0.152516         4.1502 
  89   0.0000       0.152516         4.1502 
  90   0.0000       0.152516         4.1502 
  91   0.0000       0.159815         4.3488 
  92   0.0000       0.159815         4.3488 
  93   0.0000       0.326148         8.8749 
  94   0.0000       0.389637        10.6026 
  95   0.0000       0.428177        11.6513 
  96   0.0000       0.428178        11.6513 
  97   0.0000       0.489299        13.3145 
  98   0.0000       0.489300        13.3145 
  99   0.0000       0.489301        13.3146 
 100   0.0000       0.549019        14.9396 
 101   0.0000       0.549020        14.9396 
 102   0.0000       0.549022        14.9396 
 103   0.0000       0.549637        14.9564 
 104   0.0000       0.549637        14.9564 
 105   0.0000       0.549637        14.9564 
 106   0.0000       0.585930        15.9440 
 107   0.0000       0.585930        15.9440 
 108   0.0000       0.619904        16.8685 
 109   0.0000       0.619905        16.8685 
 110   0.0000       0.619905        16.8685 
 111   0.0000       0.741956        20.1896 
 112   0.0000       0.793590        21.5947 
 113   0.0000       0.853516        23.2253 
 114   0.0000       0.853516        23.2253 
 115   0.0000       0.886353        24.1189 
 116   0.0000       0.886353        24.1189 
 117   0.0000       0.886354        24.1189 
 118   0.0000       0.919599        25.0235 
 119   0.0000       0.919599        25.0236 
 120   0.0000       0.919604        25.0237 
 121   0.0000       0.923139        25.1199 
 122   0.0000       0.923145        25.1200 
 123   0.0000       0.923146        25.1201 
 124   0.0000       0.954803        25.9815 
 125   0.0000       0.954803        25.9815 
 126   0.0000       0.954804        25.9815 
 127   0.0000       0.986443        26.8425 
 128   0.0000       0.986443        26.8425 
 129   0.0000       0.986444        26.8425 
 130   0.0000       1.208589        32.8874 
 131   0.0000       1.275393        34.7052 
 132   0.0000       1.275394        34.7052 
 133   0.0000       1.275394        34.7052 
 134   0.0000       1.313979        35.7552 
 135   0.0000       1.313981        35.7552 
 136   0.0000       1.322060        35.9751 
 137   0.0000       1.322062        35.9751 
 138   0.0000       1.322062        35.9751 
 139   0.0000       1.564767        42.5795 
 140   0.0000       1.672072        45.4994 
 141   0.0000       1.672072        45.4994 
 142   0.0000       1.672073        45.4994 
 143   0.0000       1.747705        47.5575 
 144   0.0000       1.747705        47.5575 
 145   0.0000       1.747705        47.5575 
 146   0.0000       1.955443        53.2103 
 147   0.0000       1.955443        53.2103 
 148   0.0000       1.955444        53.2103 
 149   0.0000       2.139005        58.2053 
 150   0.0000       2.143271        58.3214 
 151   0.0000       2.143272        58.3214 
 152   0.0000       2.143273        58.3214 
 153   0.0000       2.184411        59.4408 
 154   0.0000       2.184411        59.4408 
 155   0.0000       2.192319        59.6560 
 156   0.0000       2.241136        60.9844 
 157   0.0000       2.241136        60.9844 
 158   0.0000       2.241136        60.9844 
 159   0.0000       2.295698        62.4691 
 160   0.0000       2.295699        62.4691 
 161   0.0000       2.295700        62.4692 
 162   0.0000       2.319263        63.1103 
 163   0.0000       2.319263        63.1104 
 164   0.0000       2.405851        65.4665 
 165   0.0000       2.515379        68.4469 
 166   0.0000       2.515379        68.4469 
 167   0.0000       2.607979        70.9667 
 168   0.0000       2.607982        70.9668 
 169   0.0000       2.607985        70.9669 
 170   0.0000       2.745766        74.7161 
 171   0.0000       2.745769        74.7162 
 172   0.0000       2.745774        74.7163 
 173   0.0000       2.747881        74.7736 
 174   0.0000       2.747884        74.7737 
 175   0.0000       2.747885        74.7738 
 176   0.0000       2.870407        78.1078 
 177   0.0000       2.901409        78.9514 
 178   0.0000       2.901410        78.9514 
 179   0.0000       3.047072        82.9151 
 180   0.0000       3.047073        82.9151 
 181   0.0000       3.047074        82.9151 
 182   0.0000       3.680618       100.1547 
 183   0.0000       3.680618       100.1547 
 184   0.0000       3.680618       100.1547 
 185   0.0000       3.690111       100.4130 
 186   0.0000       3.690112       100.4130 
 187   0.0000       3.690112       100.4130 
 188   0.0000       3.710052       100.9556 
 189   0.0000       3.710052       100.9557 
 190   0.0000       3.710053       100.9557 
 191   0.0000       3.721803       101.2754 
 192   0.0000       3.770797       102.6086 
 193   0.0000       3.770799       102.6087 
 194   0.0000       3.770799       102.6087 
 195   0.0000       3.835958       104.3817 
 196   0.0000       3.918656       106.6321 
 197   0.0000       3.918657       106.6321 
 198   0.0000       4.142956       112.7356 
 199   0.0000       4.142958       112.7356 
 200   0.0000       4.142961       112.7357 
 201   0.0000       4.214312       114.6773 
 202   0.0000       4.214312       114.6773 
 203   0.0000       4.214313       114.6773 
 204   0.0000       4.449466       121.0761 
 205   0.0000       4.462663       121.4352 
 206   0.0000       4.462664       121.4353 
 207   0.0000       4.462664       121.4353 
 208   0.0000       4.525316       123.1401 
 209   0.0000       4.525317       123.1401 
 210   0.0000       4.733269       128.7988 
 211   0.0000       4.733274       128.7989 
 212   0.0000       4.733279       128.7991 
 213   0.0000       7.253547       197.3791 
 214   0.0000       7.253548       197.3791 
 215   0.0000       7.285822       198.2573 
 216   0.0000       7.285822       198.2573 
 217   0.0000       7.285822       198.2573 
 218   0.0000       7.305160       198.7835 
 219   0.0000       7.305160       198.7835 
 220   0.0000       7.305270       198.7865 
 221   0.0000       7.307974       198.8601 
 222   0.0000       7.307974       198.8601 
 223   0.0000       7.307974       198.8601 
 224   0.0000       7.309210       198.8937 
 225   0.0000       7.309210       198.8937 
 226   0.0000       7.309211       198.8937 
 227   0.0000       7.329189       199.4374 
 228   0.0000       7.329189       199.4374 
 229   0.0000       7.329189       199.4374 
 230   0.0000       7.329822       199.4546 
 231   0.0000       7.329822       199.4546 
 232   0.0000       7.329823       199.4546 
 233   0.0000       7.331930       199.5119 
 234   0.0000       7.331930       199.5119 
 235   0.0000       7.331930       199.5120 
 236   0.0000       7.342083       199.7882 
 237   0.0000       7.342083       199.7882 
 238   0.0000       7.345855       199.8909 
 239   0.0000       7.345855       199.8909 
 240   0.0000       7.345856       199.8909 
 241   0.0000       7.347940       199.9476 
 242   0.0000       7.373344       200.6389 
 243   0.0000       7.373368       200.6395 
 244   0.0000       7.373368       200.6396 
 245   0.0000       7.373542       200.6443 
 246   0.0000       7.381327       200.8561 
 247   0.0000       7.381327       200.8561 
 248   0.0000       7.381327       200.8561 
 249   0.0000       7.421051       201.9371 
 250   0.0000       7.421052       201.9371 
 251   0.0000       7.421053       201.9371 
 252   0.0000       7.447675       202.6615 
 253   0.0000       7.447676       202.6616 
 254   0.0000       7.447676       202.6616 
 255   0.0000       8.276723       225.2211 
 256   0.0000       8.276724       225.2211 
 257   0.0000       8.276725       225.2211 
 258   0.0000       8.792420       239.2539 
 259   0.0000       8.792420       239.2539 
 260   0.0000       8.796307       239.3597 
 261   0.0000       8.797609       239.3951 
 262   0.0000       8.797610       239.3951 
 263   0.0000       8.797610       239.3951 
 264   0.0000       8.806582       239.6393 
 265   0.0000       8.806583       239.6393 
 266   0.0000       8.806583       239.6393 
 267   0.0000       8.850811       240.8428 
 268   0.0000       8.850811       240.8428 
 269   0.0000       8.850812       240.8428 
 270   0.0000       8.890914       241.9341 
 271   0.0000       8.890915       241.9341 
 272   0.0000       8.920163       242.7300 
 273   0.0000       8.920165       242.7300 
 274   0.0000       8.920165       242.7300 
 275   0.0000       8.929463       242.9830 
 276   0.0000       9.087355       247.2795 
 277   0.0000       9.096610       247.5313 
 278   0.0000       9.096620       247.5316 
 279   0.0000       9.097149       247.5460 
 280   0.0000       9.097156       247.5462 
 281   0.0000       9.097169       247.5466 
 282   0.0000       9.170944       249.5541 
 283   0.0000       9.170946       249.5541 
 284   0.0000       9.170947       249.5541 
 285   0.0000       9.173465       249.6227 
 286   0.0000       9.173466       249.6227 
 287   0.0000       9.173470       249.6228 
 288   0.0000       9.509350       258.7626 
 289   0.0000       9.509353       258.7626 
 290   0.0000       9.509355       258.7627 
 291   0.0000       9.537912       259.5398 
 292   0.0000       9.537912       259.5398 
 293   0.0000       9.818523       267.1756 
 294   0.0000      13.834837       376.4651 
 295   0.0000      13.942415       379.3924 
 296   0.0000      13.942416       379.3924 
 297   0.0000      13.942416       379.3924 
 298   0.0000      14.138639       384.7319 
 299   0.0000      14.138640       384.7319 
 300   0.0000      14.138641       384.7320 
 301   0.0000      19.830661       539.6197 
 302   0.0000      19.830661       539.6197 
 303   0.0000      19.840417       539.8852 
 304   0.0000      19.971356       543.4482 
 305   0.0000      19.971356       543.4482 
 306   0.0000      19.971358       543.4483 
 307   0.0000      44.207879      1202.9575 
 308   0.0000      47.287068      1286.7465 
 309   0.0000      47.287069      1286.7466 
 310   0.0000      47.287069      1286.7466 
 311   0.0000      47.415098      1290.2304 
 312   0.0000      47.415098      1290.2304 
 313   0.0000      47.714458      1298.3764 
 314   0.0000      47.714459      1298.3764 
 315   0.0000      47.714460      1298.3765 
 316   0.0000      54.988672      1496.3178 
 317   0.0000      55.046592      1497.8939 
 318   0.0000      55.046592      1497.8939 
 319   0.0000      55.046593      1497.8939 
 320   0.0000      55.145270      1500.5791 
 321   0.0000      55.145271      1500.5791 
 322   0.0000      55.145272      1500.5791 
 323   0.0000     102.977427      2802.1582 
 324   0.0000     102.977427      2802.1582 
 325   0.0000     102.999249      2802.7521 
 326   0.0000     103.114315      2805.8832 
 327   0.0000     103.114315      2805.8832 
 328   0.0000     103.114317      2805.8832 
 329   0.0000     206.710533      5624.8796 
 330   0.0000     240.877406      6554.6074 
 331   0.0000     240.877406      6554.6074 
 332   0.0000     240.877406      6554.6074 
 333   0.0000     240.950562      6556.5981 
 334   0.0000     240.950563      6556.5981 
 335   0.0000     268.168285      7297.2300 
 336   0.0000     268.168285      7297.2300 
 337   0.0000     268.168286      7297.2300 
 338   0.0000     801.760379     21817.0091 
 339   0.0000    1103.927409     30039.3920 
 340   0.0000    1103.927409     30039.3920 
 341   0.0000    1103.927409     30039.3920 
 342   0.0000    2461.104504     66970.0583 
 343   0.0000    3841.805853    104540.8520 
 344   0.0000    3841.805853    104540.8520 
 345   0.0000    3841.805853    104540.8520 
 346   0.0000    6167.676304    167831.0046 
 347   0.0000   13165.152682    358242.0171 
 348   0.0000   25155.256298    684509.3237 
 349   0.0000   44355.579099   1206976.6688 
 350   0.0000   84791.179435   2307285.2926 

                 SPIN DOWN ORBITALS
  NO   OCC          E(Eh)            E(eV) 
   0   1.0000   -4373.771204   -119016.3651 
   1   1.0000    -829.449220    -22570.4607 
   2   1.0000    -693.775184    -18878.5825 
   3   1.0000    -693.775184    -18878.5825 
   4   1.0000    -693.775184    -18878.5825 
   5   1.0000    -213.889571     -5820.2311 
   6   1.0000    -175.596307     -4778.2184 
   7   1.0000    -175.596307     -4778.2184 
   8   1.0000    -175.596307     -4778.2184 
   9   1.0000    -139.961004     -3808.5325 
  10   1.0000    -139.961004     -3808.5325 
  11   1.0000    -139.957641     -3808.4410 
  12   1.0000    -139.957641     -3808.4410 
  13   1.0000    -139.957641     -3808.4410 
  14   1.0000     -57.011399     -1551.3590 
  15   1.0000     -44.218182     -1203.2379 
  16   1.0000     -44.218182     -1203.2379 
  17   1.0000     -44.218182     -1203.2379 
  18   1.0000     -30.561573      -831.6227 
  19   1.0000     -30.561573      -831.6227 
  20   1.0000     -30.556771      -831.4920 
  21   1.0000     -30.556771      -831.4920 
  22   1.0000     -30.556771      -831.4920 
  23   1.0000     -26.378289      -717.7897 
  24   1.0000     -26.378289      -717.7897 
  25   1.0000     -26.378288      -717.7897 
  26   1.0000     -26.378276      -717.7894 
  27   1.0000     -26.378274      -717.7893 
  28   1.0000     -26.378268      -717.7892 
  29   1.0000     -16.440627      -447.3722 
  30   1.0000     -16.440627      -447.3722 
  31   1.0000     -16.440627      -447.3722 
  32   1.0000     -16.438995      -447.3278 
  33   1.0000     -16.438995      -447.3278 
  34   1.0000     -16.438994      -447.3278 
  35   1.0000     -16.432389      -447.1480 
  36   1.0000     -13.668473      -371.9381 
  37   1.0000      -9.536630      -259.5049 
  38   1.0000      -9.536629      -259.5049 
  39   1.0000      -9.536628      -259.5048 
  40   1.0000      -4.810910      -130.9115 
  41   1.0000      -4.810910      -130.9115 
  42   1.0000      -4.781168      -130.1022 
  43   1.0000      -4.781167      -130.1022 
  44   1.0000      -4.781166      -130.1021 
  45   1.0000      -2.545647       -69.2706 
  46   1.0000      -1.702360       -46.3236 
  47   1.0000      -1.702360       -46.3236 
  48   1.0000      -1.702359       -46.3236 
  49   1.0000      -1.643382       -44.7187 
  50   1.0000      -1.643382       -44.7187 
  51   1.0000      -1.621236       -44.1161 
  52   1.0000      -1.318777       -35.8857 
  53   1.0000      -1.318777       -35.8857 
  54   1.0000      -1.318776       -35.8857 
  55   1.0000      -0.786537       -21.4028 
  56   1.0000      -0.786536       -21.4027 
  57   1.0000      -0.754528       -20.5318 
  58   1.0000      -0.754528       -20.5317 
  59   1.0000      -0.754528       -20.5317 
  60   1.0000      -0.728676       -19.8283 
  61   1.0000      -0.728676       -19.8283 
  62   1.0000      -0.728676       -19.8283 
  63   1.0000      -0.721811       -19.6415 
  64   1.0000      -0.712371       -19.3846 
  65   1.0000      -0.712370       -19.3846 
  66   1.0000      -0.712370       -19.3846 
  67   1.0000      -0.678152       -18.4535 
  68   1.0000      -0.678152       -18.4535 
  69   1.0000      -0.678152       -18.4534 
  70   1.0000      -0.649526       -17.6745 
  71   1.0000      -0.649525       -17.6745 
  72   1.0000      -0.649525       -17.6745 
  73   0.0000      -0.034268        -0.9325 
  74   0.0000      -0.034268        -0.9325 
  75   0.0000      -0.034268        -0.9325 
  76   0.0000      -0.026167        -0.7120 
  77   0.0000      -0.013658        -0.3717 
  78   0.0000      -0.013658        -0.3716 
  79   0.0000      -0.013658        -0.3716 
  80   0.0000       0.026123         0.7108 
  81   0.0000       0.121585         3.3085 
  82   0.0000       0.146482         3.9860 
  83   0.0000       0.146486         3.9861 
  84   0.0000       0.146495         3.9863 
  85   0.0000       0.146908         3.9976 
  86   0.0000       0.146915         3.9978 
  87   0.0000       0.146921         3.9979 
  88   0.0000       0.153559         4.1786 
  89   0.0000       0.153559         4.1786 
  90   0.0000       0.153559         4.1786 
  91   0.0000       0.159814         4.3488 
  92   0.0000       0.159814         4.3488 
  93   0.0000       0.324326         8.8254 
  94   0.0000       0.408029        11.1030 
  95   0.0000       0.423646        11.5280 
  96   0.0000       0.423646        11.5280 
  97   0.0000       0.492724        13.4077 
  98   0.0000       0.492725        13.4077 
  99   0.0000       0.492726        13.4078 
 100   0.0000       0.549389        14.9496 
 101   0.0000       0.549390        14.9497 
 102   0.0000       0.549392        14.9497 
 103   0.0000       0.550599        14.9825 
 104   0.0000       0.550599        14.9826 
 105   0.0000       0.550599        14.9826 
 106   0.0000       0.585684        15.9373 
 107   0.0000       0.585685        15.9373 
 108   0.0000       0.626062        17.0360 
 109   0.0000       0.626062        17.0360 
 110   0.0000       0.626063        17.0360 
 111   0.0000       0.745681        20.2910 
 112   0.0000       0.788276        21.4501 
 113   0.0000       0.848204        23.0808 
 114   0.0000       0.848205        23.0808 
 115   0.0000       0.884804        24.0768 
 116   0.0000       0.884805        24.0768 
 117   0.0000       0.884805        24.0768 
 118   0.0000       0.919536        25.0218 
 119   0.0000       0.919536        25.0218 
 120   0.0000       0.919543        25.0220 
 121   0.0000       0.922295        25.0969 
 122   0.0000       0.922302        25.0971 
 123   0.0000       0.922304        25.0972 
 124   0.0000       0.952913        25.9301 
 125   0.0000       0.952913        25.9301 
 126   0.0000       0.952914        25.9301 
 127   0.0000       0.985041        26.8043 
 128   0.0000       0.985042        26.8044 
 129   0.0000       0.985042        26.8044 
 130   0.0000       1.265505        34.4362 
 131   0.0000       1.280726        34.8503 
 132   0.0000       1.280727        34.8503 
 133   0.0000       1.280727        34.8504 
 134   0.0000       1.311958        35.7002 
 135   0.0000       1.311959        35.7002 
 136   0.0000       1.329306        36.1722 
 137   0.0000       1.329306        36.1723 
 138   0.0000       1.329307        36.1723 
 139   0.0000       1.563858        42.5547 
 140   0.0000       1.676726        45.6260 
 141   0.0000       1.676727        45.6261 
 142   0.0000       1.676727        45.6261 
 143   0.0000       1.752288        47.6822 
 144   0.0000       1.752289        47.6822 
 145   0.0000       1.752289        47.6822 
 146   0.0000       1.972438        53.6728 
 147   0.0000       1.972438        53.6728 
 148   0.0000       1.972438        53.6728 
 149   0.0000       2.140091        58.2348 
 150   0.0000       2.140092        58.2349 
 151   0.0000       2.140092        58.2349 
 152   0.0000       2.145346        58.3778 
 153   0.0000       2.183608        59.4190 
 154   0.0000       2.183608        59.4190 
 155   0.0000       2.191407        59.6312 
 156   0.0000       2.241210        60.9864 
 157   0.0000       2.241210        60.9864 
 158   0.0000       2.241210        60.9864 
 159   0.0000       2.294015        62.4233 
 160   0.0000       2.294015        62.4233 
 161   0.0000       2.294016        62.4234 
 162   0.0000       2.320644        63.1479 
 163   0.0000       2.320644        63.1479 
 164   0.0000       2.406675        65.4890 
 165   0.0000       2.514246        68.4161 
 166   0.0000       2.514246        68.4161 
 167   0.0000       2.607211        70.9458 
 168   0.0000       2.607214        70.9459 
 169   0.0000       2.607217        70.9460 
 170   0.0000       2.743063        74.6425 
 171   0.0000       2.743067        74.6426 
 172   0.0000       2.743071        74.6427 
 173   0.0000       2.747534        74.7642 
 174   0.0000       2.747538        74.7643 
 175   0.0000       2.747538        74.7643 
 176   0.0000       2.871647        78.1415 
 177   0.0000       2.897448        78.8436 
 178   0.0000       2.897449        78.8436 
 179   0.0000       3.040065        82.7244 
 180   0.0000       3.040065        82.7244 
 181   0.0000       3.040067        82.7244 
 182   0.0000       3.680318       100.1465 
 183   0.0000       3.680318       100.1465 
 184   0.0000       3.680318       100.1466 
 185   0.0000       3.686988       100.3281 
 186   0.0000       3.686989       100.3281 
 187   0.0000       3.686989       100.3281 
 188   0.0000       3.709041       100.9281 
 189   0.0000       3.709045       100.9283 
 190   0.0000       3.709045       100.9283 
 191   0.0000       3.710953       100.9802 
 192   0.0000       3.768215       102.5383 
 193   0.0000       3.768216       102.5384 
 194   0.0000       3.768216       102.5384 
 195   0.0000       3.909237       106.3757 
 196   0.0000       3.909237       106.3757 
 197   0.0000       3.917881       106.6110 
 198   0.0000       4.148759       112.8935 
 199   0.0000       4.148761       112.8935 
 200   0.0000       4.148764       112.8936 
 201   0.0000       4.219277       114.8124 
 202   0.0000       4.219277       114.8124 
 203   0.0000       4.219278       114.8124 
 204   0.0000       4.445532       120.9691 
 205   0.0000       4.464019       121.4721 
 206   0.0000       4.464020       121.4722 
 207   0.0000       4.464021       121.4722 
 208   0.0000       4.520359       123.0052 
 209   0.0000       4.520359       123.0052 
 210   0.0000       4.732047       128.7655 
 211   0.0000       4.732051       128.7657 
 212   0.0000       4.732057       128.7658 
 213   0.0000       7.249601       197.2717 
 214   0.0000       7.249601       197.2717 
 215   0.0000       7.281571       198.1416 
 216   0.0000       7.281572       198.1416 
 217   0.0000       7.281572       198.1416 
 218   0.0000       7.301874       198.6941 
 219   0.0000       7.301875       198.6941 
 220   0.0000       7.301960       198.6964 
 221   0.0000       7.304668       198.7701 
 222   0.0000       7.304669       198.7701 
 223   0.0000       7.304669       198.7701 
 224   0.0000       7.305692       198.7980 
 225   0.0000       7.305692       198.7980 
 226   0.0000       7.305692       198.7980 
 227   0.0000       7.327993       199.4048 
 228   0.0000       7.327993       199.4048 
 229   0.0000       7.327994       199.4048 
 230   0.0000       7.328615       199.4217 
 231   0.0000       7.328615       199.4217 
 232   0.0000       7.328615       199.4218 
 233   0.0000       7.330659       199.4774 
 234   0.0000       7.330659       199.4774 
 235   0.0000       7.330660       199.4774 
 236   0.0000       7.338557       199.6923 
 237   0.0000       7.338557       199.6923 
 238   0.0000       7.344141       199.8442 
 239   0.0000       7.344141       199.8442 
 240   0.0000       7.344141       199.8442 
 241   0.0000       7.344455       199.8528 
 242   0.0000       7.369098       200.5233 
 243   0.0000       7.369101       200.5234 
 244   0.0000       7.369102       200.5234 
 245   0.0000       7.370394       200.5586 
 246   0.0000       7.377182       200.7433 
 247   0.0000       7.377183       200.7433 
 248   0.0000       7.377183       200.7434 
 249   0.0000       7.416773       201.8207 
 250   0.0000       7.416774       201.8207 
 251   0.0000       7.416775       201.8207 
 252   0.0000       7.443166       202.5389 
 253   0.0000       7.443167       202.5389 
 254   0.0000       7.443167       202.5389 
 255   0.0000       8.291472       225.6224 
 256   0.0000       8.291472       225.6224 
 257   0.0000       8.291474       225.6225 
 258   0.0000       8.788598       239.1499 
 259   0.0000       8.788598       239.1499 
 260   0.0000       8.788599       239.1499 
 261   0.0000       8.789245       239.1675 
 262   0.0000       8.789245       239.1675 
 263   0.0000       8.793117       239.2729 
 264   0.0000       8.803634       239.5591 
 265   0.0000       8.803634       239.5591 
 266   0.0000       8.803634       239.5591 
 267   0.0000       8.846294       240.7199 
 268   0.0000       8.846295       240.7199 
 269   0.0000       8.846295       240.7199 
 270   0.0000       8.888420       241.8662 
 271   0.0000       8.888420       241.8662 
 272   0.0000       8.926430       242.9005 
 273   0.0000       8.932479       243.0651 
 274   0.0000       8.932480       243.0651 
 275   0.0000       8.932482       243.0652 
 276   0.0000       9.080048       247.0807 
 277   0.0000       9.088759       247.3177 
 278   0.0000       9.088761       247.3178 
 279   0.0000       9.088764       247.3178 
 280   0.0000       9.095023       247.4882 
 281   0.0000       9.095025       247.4882 
 282   0.0000       9.166454       249.4319 
 283   0.0000       9.166456       249.4319 
 284   0.0000       9.166460       249.4321 
 285   0.0000       9.174248       249.6440 
 286   0.0000       9.174250       249.6440 
 287   0.0000       9.174251       249.6441 
 288   0.0000       9.500590       258.5242 
 289   0.0000       9.500592       258.5242 
 290   0.0000       9.500595       258.5243 
 291   0.0000       9.536722       259.5074 
 292   0.0000       9.536722       259.5074 
 293   0.0000       9.829673       267.4790 
 294   0.0000      13.901529       378.2798 
 295   0.0000      13.950332       379.6078 
 296   0.0000      13.950333       379.6079 
 297   0.0000      13.950333       379.6079 
 298   0.0000      14.155730       385.1970 
 299   0.0000      14.155731       385.1970 
 300   0.0000      14.155733       385.1971 
 301   0.0000      19.826886       539.5170 
 302   0.0000      19.826886       539.5170 
 303   0.0000      19.836582       539.7808 
 304   0.0000      19.967646       543.3473 
 305   0.0000      19.967646       543.3473 
 306   0.0000      19.967648       543.3473 
 307   0.0000      44.214939      1203.1497 
 308   0.0000      47.296589      1287.0056 
 309   0.0000      47.296590      1287.0056 
 310   0.0000      47.296590      1287.0056 
 311   0.0000      47.419842      1290.3595 
 312   0.0000      47.419843      1290.3595 
 313   0.0000      47.721265      1298.5616 
 314   0.0000      47.721266      1298.5617 
 315   0.0000      47.721267      1298.5617 
 316   0.0000      55.023821      1497.2743 
 317   0.0000      55.050187      1497.9917 
 318   0.0000      55.050187      1497.9918 
 319   0.0000      55.050187      1497.9918 
 320   0.0000      55.154303      1500.8249 
 321   0.0000      55.154304      1500.8249 
 322   0.0000      55.154305      1500.8249 
 323   0.0000     102.976035      2802.1204 
 324   0.0000     102.976035      2802.1204 
 325   0.0000     102.997854      2802.7141 
 326   0.0000     103.112930      2805.8455 
 327   0.0000     103.112931      2805.8455 
 328   0.0000     103.112932      2805.8455 
 329   0.0000     206.714234      5624.9803 
 330   0.0000     240.881634      6554.7225 
 331   0.0000     240.881634      6554.7225 
 332   0.0000     240.881634      6554.7225 
 333   0.0000     240.952492      6556.6506 
 334   0.0000     240.952492      6556.6506 
 335   0.0000     268.171286      7297.3117 
 336   0.0000     268.171287      7297.3117 
 337   0.0000     268.171287      7297.3117 
 338   0.0000     801.761654     21817.0438 
 339   0.0000    1103.927994     30039.4079 
 340   0.0000    1103.927994     30039.4079 
 341   0.0000    1103.927995     30039.4079 
 342   0.0000    2461.104726     66970.0643 
 343   0.0000    3841.805809    104540.8508 
 344   0.0000    3841.805809    104540.8508 
 345   0.0000    3841.805809    104540.8508 
 346   0.0000    6167.676304    167831.0046 
 347   0.0000   13165.152659    358242.0165 
 348   0.0000   25155.256287    684509.3234 
 349   0.0000   44355.579100   1206976.6688 
 350   0.0000   84791.179445   2307285.2928 

                    ********************************
                    * MULLIKEN POPULATION ANALYSIS *
                    ********************************

--------------------------------------------
MULLIKEN ATOMIC CHARGES AND SPIN POPULATIONS
--------------------------------------------
   0 Np:    3.062624    1.372947
   1 F :   -0.510374   -0.062172
   2 F :   -0.510501   -0.062141
   3 F :   -0.510456   -0.062155
   4 F :   -0.510417   -0.062165
   5 F :   -0.510497   -0.062142
   6 F :   -0.510378   -0.062171
Sum of atomic charges         :   -0.0000000
Sum of atomic spin populations:    1.0000000

-----------------------------------------------------
MULLIKEN REDUCED ORBITAL CHARGES AND SPIN POPULATIONS
-----------------------------------------------------
CHARGE
  0 Nps       :    12.070112  s :    12.070112
      pz      :     9.998780  p :    29.996339
      px      :     9.998780
      py      :     9.998779
      dz2     :     6.296821  d :    31.223337
      dxz     :     6.209899
      dyz     :     6.209898
      dx2y2   :     6.296821
      dxy     :     6.209898
      f0      :     2.416729  f :    16.647589
      f+1     :     2.239106
      f-1     :     2.239107
      f+2     :     2.132532
      f-2     :     2.999802
      f+3     :     2.310155
      f-3     :     2.310157
  1 F s       :     4.015722  s :     4.015722
      pz      :     1.706185  p :     5.483603
      px      :     1.888709
      py      :     1.888709
      dz2     :     0.005116  d :     0.010750
      dxz     :     0.002791
      dyz     :     0.002791
      dx2y2   :     0.000016
      dxy     :     0.000037
      f0      :     0.000167  f :     0.000299
      f+1     :     0.000064
      f-1     :     0.000064
      f+2     :     0.000000
      f-2     :     0.000003
      f+3     :     0.000000
      f-3     :     0.000000
  2 F s       :     4.015736  s :     4.015736
      pz      :     1.706265  p :     5.483720
      px      :     1.888728
      py      :     1.888728
      dz2     :     0.005112  d :     0.010745
      dxz     :     0.002790
      dyz     :     0.002790
      dx2y2   :     0.000016
      dxy     :     0.000037
      f0      :     0.000167  f :     0.000299
      f+1     :     0.000064
      f-1     :     0.000064
      f+2     :     0.000000
      f-2     :     0.000003
      f+3     :     0.000000
      f-3     :     0.000000
  3 F s       :     4.015732  s :     4.015732
      pz      :     1.888721  p :     5.483678
      px      :     1.888721
      py      :     1.706236
      dz2     :     0.001291  d :     0.010747
      dxz     :     0.000037
      dyz     :     0.002790
      dx2y2   :     0.003839
      dxy     :     0.002790
      f0      :     0.000025  f :     0.000299
      f+1     :     0.000004
      f-1     :     0.000063
      f+2     :     0.000040
      f-2     :     0.000003
      f+3     :     0.000061
      f-3     :     0.000104
  4 F s       :     4.015727  s :     4.015727
      pz      :     1.888716  p :     5.483643
      px      :     1.888716
      py      :     1.706211
      dz2     :     0.001291  d :     0.010749
      dxz     :     0.000037
      dyz     :     0.002790
      dx2y2   :     0.003840
      dxy     :     0.002790
      f0      :     0.000025  f :     0.000299
      f+1     :     0.000004
      f-1     :     0.000063
      f+2     :     0.000040
      f-2     :     0.000003
      f+3     :     0.000061
      f-3     :     0.000104
  5 F s       :     4.015736  s :     4.015736
      pz      :     1.888727  p :     5.483717
      px      :     1.706262
      py      :     1.888727
      dz2     :     0.001290  d :     0.010746
      dxz     :     0.002790
      dyz     :     0.000037
      dx2y2   :     0.003839
      dxy     :     0.002790
      f0      :     0.000025  f :     0.000299
      f+1     :     0.000063
      f-1     :     0.000004
      f+2     :     0.000040
      f-2     :     0.000003
      f+3     :     0.000104
      f-3     :     0.000061
  6 F s       :     4.015723  s :     4.015723
      pz      :     1.888709  p :     5.483606
      px      :     1.706188
      py      :     1.888709
      dz2     :     0.001291  d :     0.010750
      dxz     :     0.002791
      dyz     :     0.000037
      dx2y2   :     0.003841
      dxy     :     0.002791
      f0      :     0.000025  f :     0.000299
      f+1     :     0.000063
      f-1     :     0.000004
      f+2     :     0.000040
      f-2     :     0.000003
      f+3     :     0.000104
      f-3     :     0.000061

SPIN
  0 Nps       :     0.009669  s :     0.009669
      pz      :    -0.014300  p :    -0.042900
      px      :    -0.014300
      py      :    -0.014300
      dz2     :     0.022946  d :     0.077799
      dxz     :     0.010635
      dyz     :     0.010636
      dx2y2   :     0.022946
      dxy     :     0.010636
      f0      :     0.102251  f :     1.328379
      f+1     :     0.042890
      f-1     :     0.042892
      f+2     :     0.007274
      f-2     :     0.999802
      f+3     :     0.066634
      f-3     :     0.066637
  1 F s       :    -0.000247  s :    -0.000247
      pz      :    -0.053137  p :    -0.062385
      px      :    -0.004624
      py      :    -0.004624
      dz2     :     0.000403  d :     0.000456
      dxz     :     0.000009
      dyz     :     0.000009
      dx2y2   :     0.000002
      dxy     :     0.000032
      f0      :     0.000006  f :     0.000004
      f+1     :    -0.000002
      f-1     :    -0.000002
      f+2     :     0.000000
      f-2     :     0.000002
      f+3     :     0.000000
      f-3     :     0.000000
  2 F s       :    -0.000247  s :    -0.000247
      pz      :    -0.053114  p :    -0.062354
      px      :    -0.004620
      py      :    -0.004620
      dz2     :     0.000403  d :     0.000456
      dxz     :     0.000009
      dyz     :     0.000009
      dx2y2   :     0.000002
      dxy     :     0.000032
      f0      :     0.000006  f :     0.000004
      f+1     :    -0.000002
      f-1     :    -0.000002
      f+2     :     0.000000
      f-2     :     0.000002
      f+3     :     0.000000
      f-3     :     0.000000
  3 F s       :    -0.000247  s :    -0.000247
      pz      :    -0.004622  p :    -0.062368
      px      :    -0.004622
      py      :    -0.053124
      dz2     :     0.000102  d :     0.000456
      dxz     :     0.000032
      dyz     :     0.000009
      dx2y2   :     0.000303
      dxy     :     0.000009
      f0      :    -0.000001  f :     0.000004
      f+1     :    -0.000000
      f-1     :     0.000002
      f+2     :    -0.000001
      f-2     :     0.000002
      f+3     :    -0.000002
      f-3     :     0.000004
  4 F s       :    -0.000247  s :    -0.000247
      pz      :    -0.004623  p :    -0.062377
      px      :    -0.004623
      py      :    -0.053132
      dz2     :     0.000103  d :     0.000456
      dxz     :     0.000032
      dyz     :     0.000009
      dx2y2   :     0.000303
      dxy     :     0.000009
      f0      :    -0.000001  f :     0.000004
      f+1     :    -0.000000
      f-1     :     0.000002
      f+2     :    -0.000001
      f-2     :     0.000002
      f+3     :    -0.000002
      f-3     :     0.000004
  5 F s       :    -0.000247  s :    -0.000247
      pz      :    -0.004620  p :    -0.062355
      px      :    -0.053115
      py      :    -0.004620
      dz2     :     0.000102  d :     0.000456
      dxz     :     0.000009
      dyz     :     0.000032
      dx2y2   :     0.000303
      dxy     :     0.000009
      f0      :    -0.000001  f :     0.000004
      f+1     :     0.000002
      f-1     :    -0.000000
      f+2     :    -0.000001
      f-2     :     0.000002
      f+3     :     0.000004
      f-3     :    -0.000002
  6 F s       :    -0.000247  s :    -0.000247
      pz      :    -0.004624  p :    -0.062384
      px      :    -0.053136
      py      :    -0.004624
      dz2     :     0.000103  d :     0.000456
      dxz     :     0.000009
      dyz     :     0.000032
      dx2y2   :     0.000303
      dxy     :     0.000009
      f0      :    -0.000001  f :     0.000004
      f+1     :     0.000002
      f-1     :    -0.000000
      f+2     :    -0.000001
      f-2     :     0.000002
      f+3     :     0.000004
      f-3     :    -0.000002


                     *******************************
                     * LOEWDIN POPULATION ANALYSIS *
                     *******************************

-------------------------------------------
LOEWDIN ATOMIC CHARGES AND SPIN POPULATIONS
-------------------------------------------
   0 Np:    0.628249    1.354315
   1 F :   -0.104640   -0.059065
   2 F :   -0.104777   -0.059038
   3 F :   -0.104728   -0.059050
   4 F :   -0.104687   -0.059059
   5 F :   -0.104773   -0.059039
   6 F :   -0.104644   -0.059064

----------------------------------------------------
LOEWDIN REDUCED ORBITAL CHARGES AND SPIN POPULATIONS
----------------------------------------------------
CHARGE
  0 Nps       :    12.121694  s :    12.121694
      pz      :    10.059411  p :    30.178232
      px      :    10.059411
      py      :    10.059410
      dz2     :     6.618000  d :    32.164354
      dxz     :     6.309452
      dyz     :     6.309451
      dx2y2   :     6.618000
      dxy     :     6.309451
      f0      :     2.717057  f :    17.907471
      f+1     :     2.426516
      f-1     :     2.426517
      f+2     :     2.252192
      f-2     :     2.999723
      f+3     :     2.542732
      f-3     :     2.542734
  1 F s       :     3.720749  s :     3.720749
      pz      :     1.737240  p :     5.363055
      px      :     1.812907
      py      :     1.812907
      dz2     :     0.014879  d :     0.020152
      dxz     :     0.002580
      dyz     :     0.002580
      dx2y2   :     0.000067
      dxy     :     0.000046
      f0      :     0.000477  f :     0.000683
      f+1     :     0.000098
      f-1     :     0.000098
      f+2     :     0.000003
      f-2     :     0.000006
      f+3     :     0.000001
      f-3     :     0.000001
  2 F s       :     3.720778  s :     3.720778
      pz      :     1.737316  p :     5.363176
      px      :     1.812930
      py      :     1.812930
      dz2     :     0.014869  d :     0.020141
      dxz     :     0.002580
      dyz     :     0.002580
      dx2y2   :     0.000067
      dxy     :     0.000046
      f0      :     0.000477  f :     0.000682
      f+1     :     0.000098
      f-1     :     0.000098
      f+2     :     0.000003
      f-2     :     0.000006
      f+3     :     0.000001
      f-3     :     0.000001
  3 F s       :     3.720767  s :     3.720767
      pz      :     1.812922  p :     5.363133
      px      :     1.812922
      py      :     1.737289
      dz2     :     0.003768  d :     0.020145
      dxz     :     0.000046
      dyz     :     0.002580
      dx2y2   :     0.011171
      dxy     :     0.002580
      f0      :     0.000038  f :     0.000683
      f+1     :     0.000006
      f-1     :     0.000181
      f+2     :     0.000060
      f-2     :     0.000006
      f+3     :     0.000092
      f-3     :     0.000299
  4 F s       :     3.720759  s :     3.720759
      pz      :     1.812916  p :     5.363097
      px      :     1.812916
      py      :     1.737265
      dz2     :     0.003769  d :     0.020148
      dxz     :     0.000046
      dyz     :     0.002580
      dx2y2   :     0.011174
      dxy     :     0.002580
[...]
      f-1     :     0.000296
      f+2     :     0.000348
      f-2     :     0.000308
      f+3     :     0.000416
      f-3     :     0.000378
  6 F s       :     4.005932  s :     4.005932
      pz      :     1.826148  p :     5.323650
      px      :     1.671354
      py      :     1.826148
      dz2     :     0.006047  d :     0.035022
      dxz     :     0.007804
      dyz     :     0.004918
      dx2y2   :     0.008449
      dxy     :     0.007804
      f0      :     0.000326  f :     0.002443
      f+1     :     0.000371
      f-1     :     0.000296
      f+2     :     0.000348
      f-2     :     0.000308
      f+3     :     0.000416
      f-3     :     0.000378

SPIN
  0 Nps       :     0.004487  s :     0.004487
      pz      :     0.000288  p :     0.000863
      px      :     0.000287
      py      :     0.000288
      dz2     :    -0.013195  d :     0.009944
      dxz     :     0.012111
      dyz     :     0.012111
      dx2y2   :    -0.013195
      dxy     :     0.012111
      f0      :     0.016369  f :     1.071298
      f+1     :     0.012833
      f-1     :     0.012832
      f+2     :     0.010711
      f-2     :     0.990059
      f+3     :     0.014247
      f-3     :     0.014247
  1 F s       :     0.000182  s :     0.000182
      pz      :    -0.003279  p :    -0.014236
      px      :    -0.005479
      py      :    -0.005479
      dz2     :    -0.000368  d :    -0.000361
      dxz     :    -0.000024
      dyz     :    -0.000024
      dx2y2   :    -0.000006
      dxy     :     0.000060
      f0      :    -0.000007  f :    -0.000016
      f+1     :    -0.000002
      f-1     :    -0.000002
      f+2     :    -0.000003
      f-2     :     0.000000
      f+3     :    -0.000001
      f-3     :    -0.000001
  2 F s       :     0.000183  s :     0.000183
      pz      :    -0.003285  p :    -0.014238
      px      :    -0.005476
      py      :    -0.005476
      dz2     :    -0.000367  d :    -0.000361
      dxz     :    -0.000024
      dyz     :    -0.000024
      dx2y2   :    -0.000006
      dxy     :     0.000060
      f0      :    -0.000007  f :    -0.000016
      f+1     :    -0.000002
      f-1     :    -0.000002
      f+2     :    -0.000003
      f-2     :     0.000000
      f+3     :    -0.000001
      f-3     :    -0.000001
  3 F s       :     0.000182  s :     0.000182
      pz      :    -0.005477  p :    -0.014237
      px      :    -0.005477
      py      :    -0.003283
      dz2     :    -0.000096  d :    -0.000361
      dxz     :     0.000060
      dyz     :    -0.000024
      dx2y2   :    -0.000277
      dxy     :    -0.000024
      f0      :    -0.000001  f :    -0.000016
      f+1     :    -0.000001
      f-1     :    -0.000005
      f+2     :    -0.000002
      f-2     :     0.000000
      f+3     :    -0.000002
      f-3     :    -0.000006
  4 F s       :     0.000182  s :     0.000182
      pz      :    -0.005478  p :    -0.014236
      px      :    -0.005478
      py      :    -0.003281
      dz2     :    -0.000096  d :    -0.000361
      dxz     :     0.000060
      dyz     :    -0.000024
      dx2y2   :    -0.000277
      dxy     :    -0.000024
      f0      :    -0.000001  f :    -0.000016
      f+1     :    -0.000001
      f-1     :    -0.000005
      f+2     :    -0.000002
      f-2     :     0.000000
      f+3     :    -0.000002
      f-3     :    -0.000006
  5 F s       :     0.000183  s :     0.000183
      pz      :    -0.005476  p :    -0.014238
      px      :    -0.003285
      py      :    -0.005476
      dz2     :    -0.000096  d :    -0.000361
      dxz     :    -0.000024
      dyz     :     0.000060
      dx2y2   :    -0.000277
      dxy     :    -0.000024
      f0      :    -0.000001  f :    -0.000016
      f+1     :    -0.000005
      f-1     :    -0.000001
      f+2     :    -0.000002
      f-2     :     0.000000
      f+3     :    -0.000006
      f-3     :    -0.000002
  6 F s       :     0.000182  s :     0.000182
      pz      :    -0.005479  p :    -0.014236
      px      :    -0.003279
      py      :    -0.005479
      dz2     :    -0.000096  d :    -0.000361
      dxz     :    -0.000024
      dyz     :     0.000060
      dx2y2   :    -0.000277
      dxy     :    -0.000024
      f0      :    -0.000001  f :    -0.000016
      f+1     :    -0.000005
      f-1     :    -0.000001
      f+2     :    -0.000002
      f-2     :     0.000000
      f+3     :    -0.000006
      f-3     :    -0.000002


                     *******************************
                     * LOEWDIN POPULATION ANALYSIS *
                     *******************************

-----------------------------------------
LOEWDIN ATOMIC CHARGES AND SPIN DENSITIES
-----------------------------------------
   0 Np:   -0.049986    1.079371
   1 F :    0.008368   -0.013227
   2 F :    0.008294   -0.013230
   3 F :    0.008319   -0.013229
   4 F :    0.008342   -0.013228
   5 F :    0.008297   -0.013230
   6 F :    0.008366   -0.013227

--------------------------------------------------
LOEWDIN REDUCED ORBITAL CHARGES AND SPIN DENSITIES
--------------------------------------------------
CHARGE
  0 Nps       :    12.120007  s :    12.120007
      pz      :    10.040784  p :    30.122351
      px      :    10.040784
      py      :    10.040784
      dz2     :     6.615821  d :    32.385721
      dxz     :     6.384693
      dyz     :     6.384693
      dx2y2   :     6.615821
      dxy     :     6.384693
      f0      :     2.794975  f :    18.421907
      f+1     :     2.513138
      f-1     :     2.513137
      f+2     :     2.344035
      f-2     :     3.004876
      f+3     :     2.625873
      f-3     :     2.625872
  1 F s       :     3.719838  s :     3.719838
      pz      :     1.705886  p :     5.222123
      px      :     1.758118
      py      :     1.758118
      dz2     :     0.020894  d :     0.046766
      dxz     :     0.007980
      dyz     :     0.007980
      dx2y2   :     0.004963
      dxy     :     0.004949
      f0      :     0.000831  f :     0.002906
      f+1     :     0.000433
      f-1     :     0.000433
      f+2     :     0.000311
      f-2     :     0.000314
      f+3     :     0.000292
      f-3     :     0.000292
  2 F s       :     3.719848  s :     3.719848
      pz      :     1.705926  p :     5.222192
      px      :     1.758133
      py      :     1.758133
      dz2     :     0.020889  d :     0.046760
      dxz     :     0.007980
      dyz     :     0.007980
      dx2y2   :     0.004962
      dxy     :     0.004948
      f0      :     0.000830  f :     0.002905
      f+1     :     0.000433
      f-1     :     0.000433
      f+2     :     0.000311
      f-2     :     0.000314
      f+3     :     0.000292
      f-3     :     0.000292
  3 F s       :     3.719844  s :     3.719844
      pz      :     1.758128  p :     5.222169
      px      :     1.758128
      py      :     1.705913
      dz2     :     0.008945  d :     0.046762
      dxz     :     0.004948
      dyz     :     0.007980
      dx2y2   :     0.016909
      dxy     :     0.007980
      f0      :     0.000346  f :     0.002905
      f+1     :     0.000300
      f-1     :     0.000506
      f+2     :     0.000379
      f-2     :     0.000314
      f+3     :     0.000425
      f-3     :     0.000636
  4 F s       :     3.719841  s :     3.719841
      pz      :     1.758124  p :     5.222147
      px      :     1.758123
      py      :     1.705900
      dz2     :     0.008945  d :     0.046764
      dxz     :     0.004949
      dyz     :     0.007980
      dx2y2   :     0.016910
      dxy     :     0.007980
      f0      :     0.000346  f :     0.002905
      f+1     :     0.000300
      f-1     :     0.000506
      f+2     :     0.000379
      f-2     :     0.000314
      f+3     :     0.000425
      f-3     :     0.000636
  5 F s       :     3.719847  s :     3.719847
      pz      :     1.758133  p :     5.222190
      px      :     1.705925
      py      :     1.758133
      dz2     :     0.008944  d :     0.046761
      dxz     :     0.007980
      dyz     :     0.004948
      dx2y2   :     0.016908
      dxy     :     0.007980
      f0      :     0.000346  f :     0.002905
      f+1     :     0.000506
      f-1     :     0.000300
      f+2     :     0.000379
      f-2     :     0.000314
      f+3     :     0.000636
      f-3     :     0.000425
  6 F s       :     3.719838  s :     3.719838
      pz      :     1.758119  p :     5.222125
      px      :     1.705887
      py      :     1.758119
      dz2     :     0.008946  d :     0.046766
      dxz     :     0.007980
      dyz     :     0.004949
      dx2y2   :     0.016911
      dxy     :     0.007980
      f0      :     0.000346  f :     0.002906
      f+1     :     0.000506
      f-1     :     0.000300
      f+2     :     0.000379
      f-2     :     0.000314
      f+3     :     0.000636
      f-3     :     0.000425

SPIN
  0 Nps       :    -0.002342  s :    -0.002342
      pz      :     0.002906  p :     0.008719
      px      :     0.002906
      py      :     0.002906
      dz2     :    -0.011573  d :     0.006503
      dxz     :     0.009883
      dyz     :     0.009883
      dx2y2   :    -0.011573
      dxy     :     0.009883
      f0      :     0.015628  f :     1.066491
      f+1     :     0.012060
      f-1     :     0.012059
      f+2     :     0.009918
      f-2     :     0.989852
      f+3     :     0.013487
      f-3     :     0.013487
  1 F s       :    -0.000006  s :    -0.000006
      pz      :    -0.003622  p :    -0.012754
      px      :    -0.004566
      py      :    -0.004566
      dz2     :    -0.000556  d :    -0.000453
      dxz     :     0.000009
      dyz     :     0.000009
      dx2y2   :    -0.000005
      dxy     :     0.000090
      f0      :    -0.000012  f :    -0.000013
      f+1     :    -0.000001
      f-1     :    -0.000001
      f+2     :    -0.000003
      f-2     :     0.000005
      f+3     :    -0.000001
      f-3     :    -0.000001
  2 F s       :    -0.000006  s :    -0.000006
      pz      :    -0.003629  p :    -0.012757
      px      :    -0.004564
      py      :    -0.004564
      dz2     :    -0.000556  d :    -0.000453
      dxz     :     0.000009
      dyz     :     0.000009
      dx2y2   :    -0.000005
      dxy     :     0.000090
      f0      :    -0.000012  f :    -0.000013
      f+1     :    -0.000001
      f-1     :    -0.000001
      f+2     :    -0.000003
      f-2     :     0.000005
      f+3     :    -0.000001
      f-3     :    -0.000001
  3 F s       :    -0.000006  s :    -0.000006
      pz      :    -0.004565  p :    -0.012756
      px      :    -0.004565
      py      :    -0.003626
      dz2     :    -0.000143  d :    -0.000453
      dxz     :     0.000090
      dyz     :     0.000009
      dx2y2   :    -0.000418
      dxy     :     0.000009
      f0      :    -0.000001  f :    -0.000013
      f+1     :    -0.000001
      f-1     :    -0.000007
      f+2     :    -0.000001
      f-2     :     0.000005
      f+3     :    -0.000001
      f-3     :    -0.000009
  4 F s       :    -0.000006  s :    -0.000006
      pz      :    -0.004565  p :    -0.012755
      px      :    -0.004565
      py      :    -0.003624
      dz2     :    -0.000143  d :    -0.000453
      dxz     :     0.000090
      dyz     :     0.000009
      dx2y2   :    -0.000418
      dxy     :     0.000009
      f0      :    -0.000001  f :    -0.000013
      f+1     :    -0.000001
      f-1     :    -0.000007
      f+2     :    -0.000001
      f-2     :     0.000005
      f+3     :    -0.000001
      f-3     :    -0.000009
  5 F s       :    -0.000006  s :    -0.000006
      pz      :    -0.004564  p :    -0.012757
      px      :    -0.003629
      py      :    -0.004564
      dz2     :    -0.000142  d :    -0.000453
      dxz     :     0.000009
      dyz     :     0.000090
      dx2y2   :    -0.000418
      dxy     :     0.000009
      f0      :    -0.000001  f :    -0.000013
      f+1     :    -0.000007
      f-1     :    -0.000001
      f+2     :    -0.000001
      f-2     :     0.000005
      f+3     :    -0.000009
      f-3     :    -0.000001
  6 F s       :    -0.000006  s :    -0.000006
      pz      :    -0.004566  p :    -0.012754
      px      :    -0.003622
      py      :    -0.004566
      dz2     :    -0.000143  d :    -0.000453
      dxz     :     0.000009
      dyz     :     0.000090
      dx2y2   :    -0.000418
      dxy     :     0.000009
      f0      :    -0.000001  f :    -0.000013
      f+1     :    -0.000007
      f-1     :    -0.000001
      f+2     :    -0.000001
      f-2     :     0.000005
      f+3     :    -0.000009
      f-3     :    -0.000001


                      *****************************
                      * MAYER POPULATION ANALYSIS *
                      *****************************

  NA   - Mulliken gross atomic population
  ZA   - Total nuclear charge
  QA   - Mulliken gross atomic charge
  VA   - Mayer's total valence
  BVA  - Mayer's bonded valence
  FA   - Mayer's free valence

  ATOM       NA         ZA         QA         VA         BVA        FA
  0 Np    90.7975    93.0000     2.2025     7.2836     5.0708     2.2129
  1 F      9.3670     9.0000    -0.3670     1.3217     0.8966     0.4251
  2 F      9.3671     9.0000    -0.3671     1.3216     0.8966     0.4251
  3 F      9.3671     9.0000    -0.3671     1.3216     0.8966     0.4251
  4 F      9.3671     9.0000    -0.3671     1.3217     0.8966     0.4251
  5 F      9.3671     9.0000    -0.3671     1.3216     0.8966     0.4251
  6 F      9.3670     9.0000    -0.3670     1.3217     0.8966     0.4251

  Mayer bond orders larger than 0.1
B(  0-Np,  1-F ) :   0.8452 B(  0-Np,  2-F ) :   0.8451 B(  0-Np,  3-F ) :   0.8451 
B(  0-Np,  4-F ) :   0.8451 B(  0-Np,  5-F ) :   0.8451 B(  0-Np,  6-F ) :   0.8452 



----------------------------------
MP2 DERIVATIVE INTEGRAL GENERATION
----------------------------------


Input Wavefunction Amplitudes       ... /home/nikolayandreadi_2125/_scratch/MP2/NpF6.mp2tbb.tmp.proc41
Input Correlated Electron Density   ... /home/nikolayandreadi_2125/_scratch/MP2/NpF6.pmp2re
Input Energy Weighted Density       ... /home/nikolayandreadi_2125/_scratch/MP2/NpF6.wmp2.tmp
Input SCF Electron Density          ... /home/nikolayandreadi_2125/_scratch/MP2/NpF6.scfp.tmp

One-Electron Terms    ...
                        ... One-Electron Terms done
Prescreening matrices              ... done

Batch handling in the gradient evaluation:
Memory available                      ... 13500.0 MB
Memory per occupied orbital in Q2     ...   63.0 MB
Memory per occupied orbital in Q3     ...    0.1 MB
Total memory requirement per |i>      ...   63.1 MB
Max. Number of orbitals possible      ...    213
Number of orbitals treated per batch  ...     67
Number of batches to be done          ...      1
Batch   0: i=   40 ...   106

---------------------------------------
MP2 TOTAL ENERGY:   -29336.057968784 Eh
---------------------------------------

-----------------------------------
NORM OF THE MP2 GRADIENT:  0.000078
-----------------------------------

-------------------------   --------------------
FINAL SINGLE POINT ENERGY    -29336.057968784498
-------------------------   --------------------

                                *** OPTIMIZATION RUN DONE ***

                            ***************************************
                            *     ORCA property calculations      *
                            ***************************************

                                    ---------------------
                                    Active property flags
                                    ---------------------
   (+) Dipole Moment


------------------------------------------------------------------------------
                       ORCA ELECTRIC PROPERTIES CALCULATION
------------------------------------------------------------------------------

Dipole Moment Calculation                       ... on
Quadrupole Moment Calculation                   ... off
Polarizability Calculation                      ... off
GBWName                                         ... /home/nikolayandreadi_2125/_scratch/MP2/NpF6.gbw
Electron density file                           ... /home/nikolayandreadi_2125/_scratch/MP2/NpF6.scfp.tmp
The origin for moment calculation is the CENTER OF MASS  = (-0.000233, -0.000077 -0.000249)

-------------
DIPOLE MOMENT
-------------
                                X             Y             Z
Electronic contribution:     -0.00353      -0.00117      -0.00376
Nuclear contribution   :      0.00274       0.00091       0.00293
                        -----------------------------------------
Total Dipole Moment    :     -0.00079      -0.00026      -0.00084
                        -----------------------------------------
Magnitude (a.u.)       :      0.00118
Magnitude (Debye)      :      0.00299


                         *** MP2 UNRELAXED DENSITY ***

------------------------------------------------------------------------------
                       ORCA ELECTRIC PROPERTIES CALCULATION
------------------------------------------------------------------------------

Dipole Moment Calculation                       ... on
Quadrupole Moment Calculation                   ... off
Polarizability Calculation                      ... off
GBWName                                         ... /home/nikolayandreadi_2125/_scratch/MP2/NpF6.gbw
Electron density file                           ... /home/nikolayandreadi_2125/_scratch/MP2/NpF6.pmp2ur
The origin for moment calculation is the CENTER OF MASS  = (-0.000233, -0.000077 -0.000249)

-------------
DIPOLE MOMENT
-------------
                                X             Y             Z
Electronic contribution:     -0.00341      -0.00113      -0.00364
Nuclear contribution   :      0.00274       0.00091       0.00293
                        -----------------------------------------
Total Dipole Moment    :     -0.00067      -0.00022      -0.00071
                        -----------------------------------------
Magnitude (a.u.)       :      0.00100
Magnitude (Debye)      :      0.00255


                           *** MP2 RELAXED DENSITY ***

------------------------------------------------------------------------------
                       ORCA ELECTRIC PROPERTIES CALCULATION
------------------------------------------------------------------------------

Dipole Moment Calculation                       ... on
Quadrupole Moment Calculation                   ... off
Polarizability Calculation                      ... off
GBWName                                         ... /home/nikolayandreadi_2125/_scratch/MP2/NpF6.gbw
Electron density file                           ... /home/nikolayandreadi_2125/_scratch/MP2/NpF6.pmp2re
The origin for moment calculation is the CENTER OF MASS  = (-0.000233, -0.000077 -0.000249)

-------------
DIPOLE MOMENT
-------------
                                X             Y             Z
Electronic contribution:     -0.00321      -0.00107      -0.00343
Nuclear contribution   :      0.00274       0.00091       0.00293
                        -----------------------------------------
Total Dipole Moment    :     -0.00047      -0.00015      -0.00050
                        -----------------------------------------
Magnitude (a.u.)       :      0.00070
Magnitude (Debye)      :      0.00178


Timings for individual modules:

Sum of individual times         ...     1308.584 sec (=  21.810 min)
GTO integral calculation        ...        5.162 sec (=   0.086 min)   0.4 %
Relativistic integrals          ...        1.465 sec (=   0.024 min)   0.1 %
SCF iterations                  ...      283.352 sec (=   4.723 min)  21.7 %
MP2 module                      ...     1018.457 sec (=  16.974 min)  77.8 %
Geometry relaxation             ...        0.148 sec (=   0.002 min)   0.0 %
                             ****ORCA TERMINATED NORMALLY****
TOTAL RUN TIME: 0 days 0 hours 21 minutes 52 seconds 980 msec
