
                                 *****************
                                 * O   R   C   A *
                                 *****************

           --- An Ab Initio, DFT and Semiempirical electronic structure package ---

                  #######################################################
                  #                        -***-                        #
                  #  Department of molecular theory and spectroscopy    #
                  #              Directorship: Frank Neese              #
                  # Max Planck Institute for Chemical Energy Conversion #
                  #                  D-45470 Muelheim/Ruhr              #
                  #                       Germany                       #
                  #                                                     #
                  #                  All rights reserved                #
                  #                        -***-                        #
                  #######################################################


                         Program Version 4.0.1.2 - RELEASE -


 With contributions from (in alphabetic order):
   Daniel Aravena         : Magnetic Properties
   Michael Atanasov       : Ab Initio Ligand Field Theory
   Ute Becker             : Parallelization
   Martin Brehm           : Molecular dynamics
   Dmytro Bykov           : SCF Hessian
   Vijay G. Chilkuri      : MRCI spin determinant printing
   Dipayan Datta          : RHF DLPNO-CCSD density
   Achintya Kumar Dutta   : EOM-CC, STEOM-CC
   Dmitry Ganyushin       : Spin-Orbit,Spin-Spin,Magnetic field MRCI
   Yang Guo               : DLPNO-NEVPT2, CIM, IAO-localization
   Andreas Hansen         : Spin unrestricted coupled pair/coupled cluster methods
   Lee Huntington         : MR-EOM, pCC
   Robert Izsak           : Overlap fitted RIJCOSX, COSX-SCS-MP3, EOM
   Christian Kollmar      : KDIIS, OOCD, Brueckner-CCSD(T), CCSD density
   Simone Kossmann        : Meta GGA functionals, TD-DFT gradient, OOMP2, MP2 Hessian
   Martin Krupicka        : AUTO-CI
   Dagmar Lenk            : GEPOL surface
   Dimitrios Liakos       : Extrapolation schemes; parallel MDCI
   Dimitrios Manganas     : ROCIS; embedding schemes
   Dimitrios Pantazis     : SARC Basis sets
   Taras Petrenko         : DFT Hessian,TD-DFT gradient, ASA, ECA, R-Raman, ABS, FL, XAS/XES, NRVS
   Peter Pinski           : DLPNO-MP2
   Christoph Reimann      : Effective Core Potentials
   Marius Retegan         : Local ZFS, SOC
   Christoph Riplinger    : Optimizer, TS searches, QM/MM, DLPNO-CCSD(T), (RO)-DLPNO pert. Triples
   Tobias Risthaus        : Range-separated hybrids, TD-DFT gradient, RPA, STAB
   Michael Roemelt        : Restricted open shell CIS
   Masaaki Saitow         : Open-shell DLPNO
   Barbara Sandhoefer     : DKH picture change effects
   Kantharuban Sivalingam : CASSCF convergence, NEVPT2, FIC-MRCI
   Georgi Stoychev        : AutoAux
   Boris Wezisla          : Elementary symmetry handling
   Frank Wennmohs         : Technical directorship


 We gratefully acknowledge several colleagues who have allowed us to
 interface, adapt or use parts of their codes:
   Stefan Grimme, W. Hujo, H. Kruse,             : VdW corrections, initial TS optimization,
                  C. Bannwarth                     DFT functionals, gCP, sTDA/sTD-DF
   Ed Valeev                                     : LibInt (2-el integral package), F12 methods
   Garnet Chan, S. Sharma, J. Yang, R. Olivares  : DMRG
   Ulf Ekstrom                                   : XCFun DFT Library
   Mihaly Kallay                                 : mrcc  (arbitrary order and MRCC methods)
   Andreas Klamt, Michael Diedenhofen            : otool_cosmo (COSMO solvation model)
   Jiri Pittner, Ondrej Demel                    : Mk-CCSD
   Frank Weinhold                                : gennbo (NPA and NBO analysis)
   Christopher J. Cramer and Donald G. Truhlar   : smd solvation model


 Your calculation uses the libint2 library for the computation of 2-el integrals
 For citations please refer to: http://libint.valeyev.net

 This ORCA versions uses:
   CBLAS   interface :  Fast vector & matrix operations
   LAPACKE interface :  Fast linear algebra routines
   SCALAPACK package :  Parallel linear algebra routines


Your calculation utilizes the basis: DKH-def2-TZVP
   Exponents from def2-TZVP [F. Weigend and R. Ahlrichs, Phys. Chem. Chem. Phys. 7, 3297 (2005)],
   recontracted for DKH2 by D. A. Pantazis.

Your calculation utilizes the auxiliary basis: SARC/J 
   decontracted def2/J up to Kr:
   F. Weigend, Phys. Chem. Chem. Phys. 8, 1057 (2006)
   and SARC auxiliary basis sets beyond Kr:
   D. A. Pantazis and F. Neese, J. Chem. Theory Comput. 5, 2229 (2009).
   D. A. Pantazis, X. Y. Chen, C. R. Landis and F. Neese, J. Chem. Theory Comput. 4, 908 (2008).
   D. A. Pantazis and F. Neese, Theor. Chem. Acc. 131, 1292 (2012).
   D. A. Pantazis and F. Neese, J. Chem. Theory Comput. 7, 677 (2011).

================================================================================
                                        WARNINGS
                       Please study these warnings very carefully!
================================================================================

Warning: TCutStore was < 0. Adjusted to Thresh (uncritical)

WARNING: your system is open-shell and RHF/RKS was chosen
  ===> : WILL SWITCH to UHF/UKS


WARNING: In scalar relativistic gradient/hessian runs we need the one-center approximation
  ===> : %rel OneCenter is turned on

WARNING: The frozen-core approximation for MP2-gradient calculations is turned on by default.

WARNING: Geometry Optimization
  ===> : Switching off AutoStart
         For restart on a previous wavefunction, please use MOREAD

WARNING: Post HF methods need fully converged wavefunctions
  ===> : Setting SCFConvForced true
         You can overwrite this default with %scf ConvForced false 


INFO   : the flag for use of LIBINT has been found!

================================================================================
                                       INPUT FILE
================================================================================
NAME = /home/nikolayandreadi_2125/_scratch/MP2/NpOH4.inp
|  1> !Opt MP2 DKH-def2-TZVP DKH SARC/J SlowConv
|  2> 
|  3> %pal
|  4> nproc 20
|  5> end
|  6> 
|  7> %maxcore 31500
|  8> 
|  9> %basis
| 10> newgto Np "SARC-DKH-TZVP" end
| 11> end
| 12> 
| 13> %scf
| 14> MaxIter 5000
| 15> end
| 16> 
| 17> %method
| 18> Z_MaxIter 5000
| 19> end
| 20> 
| 21> %geom
| 22>     MaxIter 200
| 23> end
| 24> 
| 25> * xyz 0 2
| 26>   O      1.517991   -2.452957    2.440921
| 27>   Np     1.342710   -1.328142    0.702171
| 28>   O      3.130393   -0.321107    0.426424
| 29>   O     -0.184735    0.077087    0.666024
| 30>   O      1.044978   -2.738643   -0.777591
| 31>   H      0.821725   -3.315488   -1.509084
| 32>   H     -0.908231    0.702813    0.684113
| 33>   H      1.809461   -3.219162    2.939885
| 34>   H      3.927708    0.183001    0.264036
| 35> **                         ****END OF INPUT****
================================================================================

                       *****************************
                       * Geometry Optimization Run *
                       *****************************

Geometry optimization settings:
Update method            Update   .... BFGS
Choice of coordinates    CoordSys .... Redundant Internals
Initial Hessian          InHess   .... Almoef's Model

Convergence Tolerances:
Energy Change            TolE     ....  5.0000e-06 Eh
Max. Gradient            TolMAXG  ....  3.0000e-04 Eh/bohr
RMS Gradient             TolRMSG  ....  1.0000e-04 Eh/bohr
Max. Displacement        TolMAXD  ....  4.0000e-03 bohr
RMS Displacement         TolRMSD  ....  2.0000e-03 bohr

------------------------------------------------------------------------------
                        ORCA OPTIMIZATION COORDINATE SETUP
------------------------------------------------------------------------------

The optimization will be done in new redundant internal coordinates
Making redundant internal coordinates   ...  (new redundants) done
Evaluating the initial hessian          ...  (Almloef) done
Evaluating the coordinates              ...  done
Calculating the B-matrix                .... done
Calculating the G-matrix                .... done
Diagonalizing the G-matrix              .... done
The first mode is                       ....    5
The number of degrees of freedom        ....   21

    -----------------------------------------------------------------
                    Redundant Internal Coordinates


    -----------------------------------------------------------------
         Definition                    Initial Value    Approx d2E/dq
    -----------------------------------------------------------------
      1. B(Np  1,O   0)                  2.0783         0.150068   
      2. B(O   2,Np  1)                  2.0703         0.154547   
      3. B(O   3,Np  1)                  2.0758         0.151417   
      4. B(O   4,Np  1)                  2.0659         0.157054   
      5. B(H   5,O   4)                  0.9580         0.523881   
      6. B(H   6,O   3)                  0.9567         0.526266   
      7. B(H   7,O   0)                  0.9597         0.520564   
      8. B(H   8,O   2)                  0.9572         0.525358   
      9. A(Np  1,O   0,H   7)          153.2168         0.310619   
     10. A(O   0,Np  1,O   3)          116.2962         0.300260   
     11. A(O   0,Np  1,O   4)          103.9985         0.302015   
     12. A(O   2,Np  1,O   4)          111.1713         0.303438   
     13. A(O   0,Np  1,O   2)          107.5703         0.301240   
     14. A(O   2,Np  1,O   3)          107.6849         0.301671   
     15. A(O   3,Np  1,O   4)          110.1009         0.302447   
     16. L(Np  1,O   2,H   8,O   3, 2) 183.0723         0.312562   
     17. L(Np  1,O   2,H   8,O   3, 1) 176.9652         0.312562   
     18. L(Np  1,O   3,H   6,O   4, 2) 175.2569         0.311616   
     19. L(Np  1,O   3,H   6,O   4, 1) 180.3859         0.311616   
     20. A(Np  1,O   4,H   5)          172.6032         0.313235   
     21. D(O   4,Np  1,O   0,H   7)     37.9307         0.001810   
     22. D(O   2,Np  1,O   0,H   7)    -80.0625         0.001810   
     23. D(O   3,Np  1,O   0,H   7)    159.1469         0.001810   
     24. D(H   5,O   4,Np  1,O   3)     12.6531         0.001839   
     25. D(H   5,O   4,Np  1,O   2)   -106.5981         0.001839   
     26. D(H   5,O   4,Np  1,O   0)    137.9224         0.001839   
    -----------------------------------------------------------------

Number of atoms                         .... 9
Number of degrees of freedom            .... 26

         *************************************************************
         *                GEOMETRY OPTIMIZATION CYCLE   1            *
         *************************************************************
---------------------------------
CARTESIAN COORDINATES (ANGSTROEM)
---------------------------------
  O      1.517991   -2.452957    2.440921
  Np     1.342710   -1.328142    0.702171
  O      3.130393   -0.321107    0.426424
  O     -0.184735    0.077087    0.666024
  O      1.044978   -2.738643   -0.777591
  H      0.821725   -3.315488   -1.509084
  H     -0.908231    0.702813    0.684113
  H      1.809461   -3.219162    2.939885
  H      3.927708    0.183001    0.264036

----------------------------
CARTESIAN COORDINATES (A.U.)
----------------------------
  NO LB      ZA    FRAG     MASS         X           Y           Z
   0 O     8.0000    0    15.999    2.868587   -4.635417    4.612672
   1 Np   93.0000    0   237.048    2.537354   -2.509825    1.326911
   2 O     8.0000    0    15.999    5.915585   -0.606804    0.805825
   3 O     8.0000    0    15.999   -0.349099    0.145673    1.258603
   4 O     8.0000    0    15.999    1.974722   -5.175285   -1.469434
   5 H     1.0000    0     1.008    1.552835   -6.265364   -2.851755
   6 H     1.0000    0     1.008   -1.716308    1.328124    1.292786
   7 H     1.0000    0     1.008    3.419386   -6.083335    5.555578
   8 H     1.0000    0     1.008    7.422292    0.345822    0.498956

--------------------------------
INTERNAL COORDINATES (ANGSTROEM)
--------------------------------
 O      0   0   0     0.000000000000     0.00000000     0.00000000
 Np     1   0   0     2.078264606754     0.00000000     0.00000000
 O      2   1   0     2.070257570382   107.57034042     0.00000000
 O      2   1   3     2.075828359011   116.29618956   239.20944617
 O      2   1   3     2.065878261532   103.99852439   117.99319773
 H      5   2   1     0.957953059958   172.60315751   137.92238738
 H      4   2   1     0.956716625241   177.27560571   342.17396156
 H      1   2   3     0.959682205848   153.21675327   279.93747322
 H      3   2   1     0.957186474744   176.43080331   200.93146421

---------------------------
INTERNAL COORDINATES (A.U.)
---------------------------
 O      0   0   0     0.000000000000     0.00000000     0.00000000
 Np     1   0   0     3.927350940586     0.00000000     0.00000000
 O      2   1   0     3.912219834699   107.57034042     0.00000000
 O      2   1   3     3.922747099558   116.29618956   239.20944617
 O      2   1   3     3.903944140316   103.99852439   117.99319773
 H      5   2   1     1.810268932473   172.60315751   137.92238738
 H      4   2   1     1.807932409475   177.27560571   342.17396156
 H      1   2   3     1.813536544650   153.21675327   279.93747322
 H      3   2   1     1.808820296360   176.43080331   200.93146421

---------------------
BASIS SET INFORMATION
---------------------
There are 3 groups of distinct atoms

 Group   1 Type O   : 11s6p2d1f contracted to 6s3p2d1f pattern {611111/411/11/1}
 Group   2 Type Np  : 29s20p16d12f contracted to 21s13p10d7f pattern {911111111111111111111/8111111111111/7111111111/6111111}
 Group   3 Type H   : 5s1p contracted to 3s1p pattern {311/1}

Atom   0O    basis set group =>   1
Atom   1Np   basis set group =>   2
Atom   2O    basis set group =>   1
Atom   3O    basis set group =>   1
Atom   4O    basis set group =>   1
Atom   5H    basis set group =>   3
Atom   6H    basis set group =>   3
Atom   7H    basis set group =>   3
Atom   8H    basis set group =>   3

INFORMATION: There is an auxiliary basis set but the global RI flag is NOT set

-------------------------------
AUXILIARY BASIS SET INFORMATION
-------------------------------
There are 3 groups of distinct atoms

 Group   1 Type O   : 12s5p4d2f1g contracted to 12s5p4d2f1g pattern {111111111111/11111/1111/11/1}
 Group   2 Type Np  : 33s10p8d6f4g2h1i contracted to 33s10p8d6f4g2h1i pattern {111111111111111111111111111111111/1111111111/11111111/111111/1111/11/1}
 Group   3 Type H   : 5s2p1d contracted to 5s2p1d pattern {11111/11/1}

Atom   0O    basis set group =>   1
Atom   1Np   basis set group =>   2
Atom   2O    basis set group =>   1
Atom   3O    basis set group =>   1
Atom   4O    basis set group =>   1
Atom   5H    basis set group =>   3
Atom   6H    basis set group =>   3
Atom   7H    basis set group =>   3
Atom   8H    basis set group =>   3


           ************************************************************
           *        Program running with 20 parallel MPI-processes    *
           *              working on a common directory               *
           ************************************************************
------------------------------------------------------------------------------
                           ORCA GTO INTEGRAL CALCULATION
------------------------------------------------------------------------------

                         BASIS SET STATISTICS AND STARTUP INFO

 # of primitive gaussian shells          ...  181
 # of primitive gaussian functions       ...  469
 # of contracted shells                  ...  115
 # of contracted basis functions         ...  311
 Highest angular momentum                ...    3
 Maximum contraction depth               ...    9
 Integral package used                   ... LIBINT
 Integral threshhold            Thresh   ...  2.500e-11
 Primitive cut-off              TCut     ...  2.500e-12


------------------------------ INTEGRAL EVALUATION ----------------------------


 * One electron integrals 
 Pre-screening matrix                    ... done
 Shell pair data                         ... done (   0.001 sec)

------------------------------------------------------------------------------
                          ORCA RELATIVISTIC HAMILTONIAN
------------------------------------------------------------------------------

Relativistic Method            ... DKH
Order of DKH treatment         ...   2
Treatment of potential         ... V(e,N)
Eps parameter for DKH          ...   0.00000000010000
Nucleus model                  ... Point Nucleus
Speed of light used            ... 137.03598950000000


            ************************************************
            *        DOUGLAS-KROLL-HESS HAMILTONIAN        *
            *   Programmed by FN according to literature   *
            *        procedures. Special thanks to         *
            *       B.A. Hess, M. Reiher and A. Wolf       *
            *     University Erlangen-Nuernberg/Bonn       *
            ************************************************

Uncontracting the basis (first version)        ... done
Number of contracted basis functions           ...  311
Number of uncontracted basis functions         ...  469
Initializing the DKH file                      ... done
One center approximation for DKH is active
Finding unique atoms                      ... 3 atom types
 ATOMIC NUMBER   8
          ... doing integrals          ... Computing the DKH transformation
          ... Transforming V and pVp to p**2 space
          ... First transformation of V and pVp
          ... Second transformation of Veff
          ... Adding kinetic energy
          ... Back transformation of Veff to r-space
          ... Recontracting the H-matrix
          ... Computing the DKH correction to the H-matrix
          ... adding submatrics to 4 actual atoms
 ATOMIC NUMBER  93
          ... doing integrals          ... Computing the DKH transformation
          ... Transforming V and pVp to p**2 space
          ... First transformation of V and pVp
          ... Second transformation of Veff
          ... Adding kinetic energy
          ... Back transformation of Veff to r-space
          ... Recontracting the H-matrix
          ... Computing the DKH correction to the H-matrix
          ... adding submatrics to 1 actual atoms
 ATOMIC NUMBER   1
          ... doing integrals          ... Computing the DKH transformation
          ... Transforming V and pVp to p**2 space
          ... First transformation of V and pVp
          ... Second transformation of Veff
          ... Adding kinetic energy
          ... Back transformation of Veff to r-space
          ... Recontracting the H-matrix
          ... Computing the DKH correction to the H-matrix
          ... adding submatrics to 4 actual atoms
Storing DKH matrices                           ... done
Getting S**(-1/2)                              ... done
Reading the original H-matrix                  ... done
Adding DKH correction to the H-matrix          ... done
Storing the new modified H-matrix              ... done


           ************************************************************
           *        Program running with 20 parallel MPI-processes    *
           *              working on a common directory               *
           ************************************************************
-------------------------------------------------------------------------------
                                 ORCA SCF
-------------------------------------------------------------------------------

------------
SCF SETTINGS
------------
Hamiltonian:
 Ab initio Hamiltonian  Method          .... Hartree-Fock(GTOs)

Relativistic Settings:
 Scalar relativistic method             .... Douglas-Kroll-Hess
 Order of DKH procedure    Order        ....    2
 Mode of DKH-treatment                  .... V=V(e,N)
 Speed of light used       Velit        ....       137.035989
 Cutoff-constant           Eps          ....            1e-10 


General Settings:
 Integral files         IntName         .... /home/nikolayandreadi_2125/_scratch/MP2/NpOH4
 Hartree-Fock type      HFTyp           .... UHF
 Total Charge           Charge          ....    0
 Multiplicity           Mult            ....    2
 Number of Electrons    NEL             ....  129
 Basis Dimension        Dim             ....  311
 Nuclear Repulsion      ENuc            ....    915.8457080807 Eh

Convergence Acceleration:
 DIIS                   CNVDIIS         .... on
   Start iteration      DIISMaxIt       ....     0
   Startup error        DIISStart       ....  0.200000
   # of expansion vecs  DIISMaxEq       ....     5
   Bias factor          DIISBfac        ....   1.050
   Max. coefficient     DIISMaxC        ....  10.000
 Newton-Raphson         CNVNR           .... off
 SOSCF                  CNVSOSCF        .... off
 Level Shifting         CNVShift        .... on
   Level shift para.    LevelShift      ....    0.2500
   Turn off err/grad.   ShiftErr        ....    0.0000
 Zerner damping         CNVZerner       .... off
 Static damping         CNVDamp         .... on
   Fraction old density DampFac         ....    0.8500
   Max. Damping (<1)    DampMax         ....    0.9800
   Min. Damping (>=0)   DampMin         ....    0.0000
   Turn off err/grad.   DampErr         ....    0.0300
 Fernandez-Rico         CNVRico         .... off

SCF Procedure:
 Maximum # iterations   MaxIter         ....  5000
 SCF integral mode      SCFMode         .... Direct
   Integral package                     .... LIBINT
 Reset frequeny         DirectResetFreq ....    20
 Integral Threshold     Thresh          ....  2.500e-11 Eh
 Primitive CutOff       TCut            ....  2.500e-12 Eh

Convergence Tolerance:
 Convergence Check Mode ConvCheckMode   .... Total+1el-Energy
 Convergence forced     ConvForced      .... 1
 Energy Change          TolE            ....  1.000e-08 Eh
 1-El. energy change                    ....  1.000e-05 Eh
 DIIS Error             TolErr          ....  5.000e-07


Diagonalization of the overlap matrix:
Smallest eigenvalue                        ... 4.193e-04
Time for diagonalization                   ...    0.020 sec
Threshold for overlap eigenvalues          ... 1.000e-08
Number of eigenvalues below threshold      ... 0
Time for construction of square roots      ...    0.020 sec
Total time needed                          ...    0.040 sec

-------------------
DFT GRID GENERATION
-------------------

General Integration Accuracy     IntAcc      ...  4.340
Radial Grid Type                 RadialGrid  ... Gauss-Chebyshev
Angular Grid (max. acc.)         AngularGrid ... Lebedev-110
Angular grid pruning method      GridPruning ... 3 (G Style)
Weight generation scheme         WeightScheme... Becke
Basis function cutoff            BFCut       ...    1.0000e-11
Integration weight cutoff        WCut        ...    1.0000e-14
Grids for H and He will be reduced by one unit

# of grid points (after initial pruning)     ...  13984 (   0.0 sec)
# of grid points (after weights+screening)   ...  13589 (   0.0 sec)
nearest neighbour list constructed           ...    0.0 sec
Grid point re-assignment to atoms done       ...    0.0 sec
Grid point division into batches done        ...    0.0 sec
Reduced shell lists constructed in    0.0 sec

Total number of grid points                  ...    13589
Total number of batches                      ...      217
Average number of points per batch           ...       62
Average number of grid points per atom       ...     1510
Average number of shells per batch           ...    52.00 (45.22%)
Average number of basis functions per batch  ...   146.33 (47.05%)
Average number of large shells per batch     ...    40.83 (78.53%)
Average number of large basis fcns per batch ...   114.33 (78.13%)
Maximum spatial batch extension              ...  14.22,  7.83, 20.21 au
Average spatial batch extension              ...   0.25,  0.20,  0.26 au

Time for grid setup =    0.065 sec

------------------------------
INITIAL GUESS: MODEL POTENTIAL
------------------------------
Loading DKH relativistic densities                 ... done
Calculating cut-offs                               ... done
Setting up the integral package                    ... done
Initializing the effective Hamiltonian             ... done
Starting the Coulomb interaction                   ... done (   0.0 sec)
Reading the grid                                   ... done
Mapping shells                                     ... done
Starting the XC term evaluation                    ... done (   0.0 sec)
Transforming the Hamiltonian                       ... done (   0.0 sec)
Diagonalizing the Hamiltonian                      ... done (   0.0 sec)
Back transforming the eigenvectors                 ... done (   0.0 sec)
Now organizing SCF variables                       ... done
                      ------------------
                      INITIAL GUESS DONE (   0.2 sec)
                      ------------------
--------------
SCF ITERATIONS
--------------
ITER       Energy         Delta-E        Max-DP      RMS-DP      [F,P]     Damp
               ***  Starting incremental Fock matrix formation  ***
  0 -29037.3322601249   0.000000000000 0.04572505  0.00047397  8.2950341 0.8500
  1 -29037.5216267405  -0.189366615570 0.03152705  0.00038935  7.0565496 0.8500
                               ***Turning on DIIS***
  2 -29037.6522778209  -0.130651080413 0.01818258  0.00028563  6.0028792 0.8500
  3 -29032.1466065587   5.505671262152 0.01363572  0.00018955  5.1064475 0.8500
  4 -29031.5905082262   0.556098332519 0.01551038  0.00016779  4.3426639 0.8500
  5 -29033.6302001141  -2.039691887912 0.01300069  0.00015053  3.6920995 0.8500
  6 -29034.7614517102  -1.131251596053 0.01093369  0.00013469  3.1386398 0.8500
  7 -29036.1978686935  -1.436416983292 0.00873004  0.00011992  2.6680167 0.8500
  8 -29036.1301003091   0.067768384331 0.00806802  0.00010682  2.2679883 0.8500
  9 -29036.0521911382   0.077909170963 0.00745633  0.00009455  1.9279251 0.8500
 10 -29036.2884873740  -0.236296235853 0.00667829  0.00008306  1.6388404 0.8500
 11 -29036.6300321533  -0.341544779309 0.00597610  0.00007258  1.3931027 0.8500
 12 -29036.9432493942  -0.313217240815 0.00525914  0.00006330  1.1842155 0.8500
 13 -29037.1366390460  -0.193389651828 0.00468157  0.00005531  1.0066524 0.8500
 14 -29037.2690962119  -0.132457165924 0.00420152  0.00004834  0.8557131 0.8500
 15 -29037.3917154915  -0.122619279595 0.00375698  0.00004221  0.7274048 0.8500
 16 -29037.5118509262  -0.120135434659 0.00333382  0.00003680  0.6183350 0.8500
 17 -29037.6202989000  -0.108447973824 0.00294305  0.00003207  0.5256196 0.8500
 18 -29037.7099341829  -0.089635282915 0.00259509  0.00002798  0.4468065 0.8500
 19 -29037.7830574969  -0.073123313981 0.00228890  0.00002444  0.3798110 0.8500
               *** Restarting incremental Fock matrix formation ***
                                   *** Resetting DIIS ***
 20 -29038.1807330096  -0.397675512711 0.00119520  0.00001600  0.3228609 0.8500
 21 -29038.0108713321   0.169861677456 0.00107372  0.00001437  0.2746391 0.8500
 22 -29037.9503038701   0.060567461998 0.00143412  0.00001451  0.2335593 0.8500
 23 -29038.0011206523  -0.050816782150 0.00142522  0.00001386  0.1985696 0.8500
 24 -29038.0417414414  -0.040620789092 0.00131398  0.00001286  0.1688020 0.8500
 25 -29038.0917253127  -0.049983871286 0.00116492  0.00001177  0.1434900 0.8500
 26 -29038.1014896729  -0.009764360220 0.00106653  0.00001094  0.1219747 0.8500
 27 -29038.1047983401  -0.003308667248 0.00098115  0.00001023  0.1036852 0.8500
 28 -29038.1149307473  -0.010132407151 0.00088971  0.00000960  0.0881377 0.8500
 29 -29038.1282784334  -0.013347686159 0.00079668  0.00000908  0.0749215 0.8500
 30 -29038.1411420786  -0.012863645181 0.00070899  0.00000869  0.0636872 0.8500
 31 -29038.1505641187  -0.009422040104 0.00063147  0.00000845  0.0541374 0.8500
 32 -29038.1576406420  -0.007076523281 0.00056363  0.00000833  0.0460197 0.8500
 33 -29038.1638252789  -0.006184636848 0.00050353  0.00000832  0.0391191 0.8500
 34 -29038.1695208450  -0.005695566178 0.00052509  0.00000841  0.0332532 0.8500
 35 -29038.1745759079  -0.005055062840 0.00369850  0.00005724  0.0282669 0.0000
 36 -29038.2136130101  -0.039037102200 0.00153144  0.00002142  0.0012592 0.0000
 37 -29038.2142956513  -0.000682641232 0.00159811  0.00002229  0.0013205 0.0000
 38 -29038.2201146933  -0.005819041980 0.00073635  0.00001058  0.0013904 0.0000
 39 -29038.2265712450  -0.006456551666 0.00046721  0.00000620  0.0014213 0.0000
               *** Restarting incremental Fock matrix formation ***
                                   *** Resetting DIIS ***
 40 -29038.2146413719   0.011929873057 0.00191783  0.00002638  0.0014217 0.0000
 41 -29038.2158121689  -0.001170797012 0.00186872  0.00002586  0.0014724 0.0000
 42 -29038.2268628300  -0.011050661131 0.00013713  0.00000258  0.0015400 0.0000
 43 -29038.2340893750  -0.007226544931 0.00091590  0.00001241  0.0015662 0.0000
 44 -29038.2331282773   0.000961097652 0.00026755  0.00000387  0.0015609 0.0000
 45 -29038.2228184992   0.010309778096 0.00172711  0.00002346  0.0015465 0.0000
 46 -29038.2177813014   0.005037197865 0.00200645  0.00002774  0.0015731 0.0000
 47 -29038.2304900952  -0.012708793871 0.00085481  0.00001110  0.0016306 0.0000
 48 -29038.2276113236   0.002878771618 0.00016677  0.00000219  0.0016591 0.0000
 49 -29038.2250230139   0.002588309686 0.00074034  0.00001000  0.0016475 0.0000
 50 -29038.2242179974   0.000805016560 0.00122989  0.00001690  0.0016552 0.0000
 51 -29038.2297936780  -0.005575680610 0.00083677  0.00001189  0.0016950 0.0000
 52 -29038.2441886518  -0.014394973863 0.00090629  0.00001202  0.0017437 0.0000
 53 -29038.2388228656   0.005365786215 0.00078874  0.00001056  0.0017695 0.0000
 54 -29038.2309495445   0.007873321174 0.00156380  0.00002139  0.0017570 0.0000
 55 -29038.2329524976  -0.002002953162 0.00048934  0.00000726  0.0017802 0.0000
 56 -29038.2338219995  -0.000869501855 0.00023625  0.00000304  0.0018213 0.0000
 57 -29038.2265253250   0.007296674470 0.00075138  0.00001031  0.0018333 0.0000
 58 -29038.2257723611   0.000752963890 0.00090643  0.00001244  0.0018332 0.0000
 59 -29038.2308884514  -0.005116090324 0.00088037  0.00001229  0.0018569 0.0000
               *** Restarting incremental Fock matrix formation ***
                                   *** Resetting DIIS ***
 60 -29038.2200471888   0.010841262665 0.00313175  0.00004321  0.0019008 0.0000
 61 -29038.2320749038  -0.012027715064 0.00172281  0.00002453  0.0019568 0.0000
 62 -29038.2702030228  -0.038128119006 0.00247463  0.00003356  0.0020425 0.0000
 63 -29038.2680568408   0.002146182076 0.00033304  0.00000514  0.0021279 0.0000
 64 -29038.2656501291   0.002406711686 0.00041823  0.00000589  0.0020743 0.0000
 65 -29038.2294739075   0.036176221576 0.00372522  0.00005109  0.0020652 0.0000
 66 -29038.2246390671   0.004834840387 0.00323226  0.00004549  0.0020252 0.0000
 67 -29038.2848898920  -0.060250824845 0.00563933  0.00007649  0.0021215 0.0000
 68 -29038.2653480131   0.019541878875 0.00055788  0.00000911  0.0023251 0.0000
 69 -29038.2502832194   0.015064793719 0.00082451  0.00001100  0.0021598 0.0000
 70 -29038.2424874625   0.007795756872 0.00174379  0.00002405  0.0021068 0.0000
 71 -29038.2383514315   0.004136031032 0.00171764  0.00002421  0.0021173 0.0000
 72 -29038.2396513927  -0.001299961277 0.00125850  0.00001790  0.0021294 0.0000
 73 -29038.2734628899  -0.033811497113 0.00449033  0.00006119  0.0021686 0.0000
 74 -29038.2436144078   0.029848482063 0.00173787  0.00002297  0.0023140 0.0000
 75 -29038.2310264250   0.012587982783 0.00259941  0.00003609  0.0021430 0.0000
 76 -29038.2357695110  -0.004743086007 0.00257078  0.00003647  0.0021563 0.0000
 77 -29038.2857734274  -0.050003916389 0.00270818  0.00003686  0.0022297 0.0000
 78 -29038.2801706402   0.005602787151 0.00022165  0.00000313  0.0023924 0.0000
 79 -29038.2741629905   0.006007649779 0.00059515  0.00000813  0.0022935 0.0000
               *** Restarting incremental Fock matrix formation ***
                                   *** Resetting DIIS ***
 80 -29038.2250443469   0.049118643576 0.00368304  0.00005204  0.0022766 0.0000
 81 -29038.2288384670  -0.003794120144 0.00281235  0.00004028  0.0022515 0.0000
 82 -29038.3031400569  -0.074301589848 0.00426185  0.00005935  0.0023692 0.0000
 83 -29038.2874437567   0.015696300165 0.00062558  0.00000832  0.0026003 0.0000
 84 -29038.2863464945   0.001097262182 0.00017800  0.00000255  0.0024187 0.0000
 85 -29038.2488777766   0.037468717957 0.00469486  0.00006593  0.0024257 0.0000
 86 -29038.2262715812   0.022606195358 0.00489309  0.00006902  0.0023544 0.0000
 87 -29038.2949206288  -0.068649047542 0.00374908  0.00005106  0.0024249 0.0000
 88 -29038.2867721483   0.008148480490 0.00216182  0.00003088  0.0027085 0.0000
 89 -29038.2428887549   0.043883393329 0.00217944  0.00002989  0.0025831 0.0000
 90 -29038.2229136685   0.019975086430 0.00443836  0.00006185  0.0023962 0.0000
 91 -29038.2439128374  -0.020999168861 0.00440830  0.00006210  0.0024339 0.0000
 92 -29038.3614196889  -0.117506851548 0.00446057  0.00006091  0.0025715 0.0000
 93 -29038.3684586224  -0.007038933443 0.00064339  0.00000977  0.0029768 0.0000
 94 -29038.3493204917   0.019138130690 0.00118903  0.00001622  0.0028141 0.0000
 95 -29038.2754696304   0.073850861230 0.00610261  0.00008468  0.0027206 0.0000
 96 -29038.2264174426   0.049052187849 0.00706569  0.00009990  0.0025616 0.0000
 97 -29038.2751925232  -0.048775080599 0.00172817  0.00002701  0.0026372 0.0000
 98 -29038.3847489812  -0.109556457974 0.01012862  0.00014111  0.0028693 0.0000
 99 -29038.3079561057   0.076792875494 0.00089469  0.00001319  0.0035394 0.0000
               *** Restarting incremental Fock matrix formation ***
                                   *** Resetting DIIS ***
100 -29038.2387635307   0.069192574989 0.00431916  0.00006123  0.0029136 0.0000
101 -29038.2363803533   0.002383177416 0.00502201  0.00007122  0.0028069 0.0000
102 -29038.2509792273  -0.014598874041 0.00414503  0.00005799  0.0028428 0.0000
103 -29038.3671754739  -0.116196246563 0.00530574  0.00007174  0.0029100 0.0000
104 -29038.3615226796   0.005652794229 0.00051034  0.00000717  0.0034706 0.0000
105 -29038.3074476989   0.054074980697 0.00483634  0.00006592  0.0030492 0.0000
106 -29038.2686487557   0.038798943289 0.00642239  0.00008573  0.0027964 0.0000
107 -29038.2158924372   0.052756318484 0.00845408  0.00010927  0.0027527 0.0000
108 -29038.2473740557  -0.031481618513 0.00508348  0.00006621  0.0026089 0.0000
109 -29038.2442424456   0.003131610039 0.00530954  0.00006770  0.0026568 0.0000
110 -29038.2403064827   0.003935962963 0.00485367  0.00006278  0.0026446 0.0000
111 -29038.2030989151   0.037207567584 0.01029493  0.00012831  0.0024434 0.0000
112 -29038.2924253005  -0.089326385409 0.00042168  0.00000775  0.0018965 0.0000
113 -29038.1637956229   0.128629677631 0.01301331  0.00016027  0.0021942 0.0000
114 -29038.3270370181  -0.163241395207 0.00322288  0.00003585  0.0026524 0.0000
115 -29038.2193160813   0.107720936787 0.00625733  0.00008063  0.0018624 0.0000
116 -29038.2612131128  -0.041897031453 0.00416447  0.00006010  0.0017224 0.0000
117 -29038.2934416820  -0.032228569275 0.00087434  0.00001200  0.0015572 0.0000
118 -29038.2587167059   0.034724976103 0.00295062  0.00004441  0.0012788 0.0000
119 -29038.2703817044  -0.011664998448 0.00077823  0.00001005  0.0012252 0.0000
               *** Restarting incremental Fock matrix formation ***
                                   *** Resetting DIIS ***
120 -29038.2695775427   0.000804161689 0.00103606  0.00001119  0.0010626 0.0000
121 -29038.2749816735  -0.005404130847 0.00138324  0.00001471  0.0010320 0.0000
122 -29038.2709231789   0.004058494640 0.00194784  0.00002030  0.0010066 0.0000
123 -29038.2727999350  -0.001876756061 0.00148624  0.00001540  0.0009680 0.0000
124 -29038.2727518251   0.000048109821 0.00137659  0.00001409  0.0009542 0.0000
125 -29038.2718135212   0.000938303892 0.00115183  0.00001176  0.0009454 0.0000
126 -29038.2720836773  -0.000270156070 0.00115540  0.00001183  0.0009644 0.0000
127 -29038.2721168595  -0.000033182230 0.00107992  0.00001128  0.0010135 0.0000
128 -29038.2719000937   0.000216765791 0.00105159  0.00001134  0.0010527 0.0000
129 -29038.2719958042  -0.000095710413 0.00113483  0.00001269  0.0010881 0.0000
130 -29038.2714287937   0.000567010440 0.00105970  0.00001255  0.0011226 0.0000
131 -29038.2718129410  -0.000384147243 0.00142092  0.00001729  0.0011481 0.0000
132 -29038.2707029891   0.001109951860 0.00090517  0.00001194  0.0011814 0.0000
133 -29038.2717590036  -0.001056014535 0.00221339  0.00002874  0.0011909 0.0000
134 -29038.2720726410  -0.000313637327 0.00028328  0.00000323  0.0012829 0.0000
135 -29038.2683284931   0.003744147907 0.00108696  0.00001468  0.0012116 0.0000
136 -29038.2702115366  -0.001883043562 0.00241371  0.00003363  0.0012304 0.0000
137 -29038.2733453598  -0.003133823171 0.00027311  0.00000484  0.0013426 0.0000
138 -29038.2688261470   0.004519212813 0.00222525  0.00003228  0.0012400 0.0000
139 -29038.2728708173  -0.004044670324 0.00017811  0.00000297  0.0013553 0.0000
               *** Restarting incremental Fock matrix formation ***
                                   *** Resetting DIIS ***
140 -29038.2709797095   0.001891107797 0.00024534  0.00000367  0.0012563 0.0000
141 -29038.2708575224   0.000122187143 0.00026225  0.00000383  0.0012751 0.0000
142 -29038.2709047138  -0.000047191443 0.00030369  0.00000434  0.0012845 0.0000
143 -29038.2705795847   0.000325129095 0.00038719  0.00000548  0.0012868 0.0000
144 -29038.2704812682   0.000098316530 0.00058287  0.00000816  0.0012828 0.0000
145 -29038.2703770715   0.000104196635 0.00063416  0.00000883  0.0012708 0.0000
146 -29038.2704556486  -0.000078577024 0.00065796  0.00000911  0.0012668 0.0000
147 -29038.2702483454   0.000207303176 0.00077880  0.00001070  0.0012719 0.0000
148 -29038.2702477240   0.000000621421 0.00087883  0.00001195  0.0012829 0.0000
149 -29038.2699826371   0.000265086885 0.00105682  0.00001424  0.0012930 0.0000
150 -29038.2701349662  -0.000152329143 0.00104981  0.00001404  0.0013085 0.0000
151 -29038.2694965994   0.000638366844 0.00153761  0.00002045  0.0013107 0.0000
152 -29038.2709892835  -0.001492684067 0.00054191  0.00000721  0.0013457 0.0000
153 -29038.2682300725   0.002759210998 0.00341842  0.00004533  0.0012761 0.0000
154 -29038.2785056108  -0.010275538298 0.00179197  0.00002367  0.0014549 0.0000
155 -29038.2643498620   0.014155748766 0.00267303  0.00003492  0.0013692 0.0000
156 -29038.2722001628  -0.007850300790 0.00232757  0.00003084  0.0013833 0.0000
157 -29038.2675932991   0.004606863669 0.00247660  0.00003280  0.0013627 0.0000
158 -29038.2727374226  -0.005144123537 0.00287529  0.00003833  0.0013482 0.0000
159 -29038.2704274743   0.002309948351 0.00087243  0.00001142  0.0013432 0.0000
               *** Restarting incremental Fock matrix formation ***
                                   *** Resetting DIIS ***
160 -29038.2719724566  -0.001544982268 0.00019433  0.00000293  0.0011695 0.0000
161 -29038.2738861646  -0.001913708002 0.00018652  0.00000251  0.0011040 0.0000
162 -29038.2702443939   0.003641770665 0.00026742  0.00000348  0.0011177 0.0000
163 -29038.2716968566  -0.001452462744 0.00037831  0.00000487  0.0011213 0.0000
164 -29038.2707067862   0.000990070472 0.00077638  0.00001001  0.0011064 0.0000
165 -29038.2729932466  -0.002286460476 0.00140672  0.00001831  0.0010812 0.0000
166 -29038.2719825780   0.001010668690 0.00020896  0.00000309  0.0011117 0.0000
167 -29038.2725840766  -0.000601498607 0.00333302  0.00004471  0.0010143 0.0000
168 -29038.2805881102  -0.008004033611 0.00154714  0.00002044  0.0011595 0.0000
169 -29038.2640004879   0.016587622235 0.00310304  0.00004233  0.0010463 0.0000
170 -29038.2739081018  -0.009907613909 0.00210964  0.00003018  0.0010727 0.0000
171 -29038.2686385705   0.005269531375 0.00336425  0.00004586  0.0009363 0.0000
172 -29038.2725725220  -0.003933951521 0.00180801  0.00002420  0.0009076 0.0000
173 -29038.2719659514   0.000606570622 0.00425231  0.00005395  0.0007054 0.0000
174 -29038.2818631867  -0.009897235355 0.00016868  0.00000261  0.0007394 0.0000
175 -29038.2718073692   0.010055817525 0.00268439  0.00003258  0.0004074 0.0000
176 -29038.2711019452   0.000705423972 0.00150136  0.00001805  0.0004859 0.0000
177 -29038.2748950754  -0.003793130130 0.00094913  0.00001114  0.0003490 0.0000
178 -29038.2730248487   0.001870226621 0.00053146  0.00000631  0.0003399 0.0000
179 -29038.2731890956  -0.000164246881 0.00031025  0.00000348  0.0003433 0.0000
               *** Restarting incremental Fock matrix formation ***
                                   *** Resetting DIIS ***
180 -29038.2725613796   0.000627716057 0.00013085  0.00000118  0.0003415 0.0000
181 -29038.2727135327  -0.000152153159 0.00014859  0.00000130  0.0003426 0.0000
182 -29038.2726830757   0.000030456984 0.00021191  0.00000182  0.0003411 0.0000
183 -29038.2733150172  -0.000631941479 0.00037787  0.00000319  0.0003358 0.0000
184 -29038.2733182631  -0.000003245852 0.00075401  0.00000629  0.0003222 0.0000
185 -29038.2730528771   0.000265385919 0.00041396  0.00000347  0.0003263 0.0000
186 -29038.2740315726  -0.000978695440 0.00118830  0.00000976  0.0003121 0.0000
187 -29038.2722222405   0.001809332120 0.00010569  0.00000094  0.0003223 0.0000
188 -29038.2738456647  -0.001623424203 0.00103961  0.00000843  0.0002885 0.0000
189 -29038.2742865835  -0.000440918873 0.00142080  0.00001154  0.0002998 0.0000
190 -29038.2735439820   0.000742601580 0.00036576  0.00000314  0.0002967 0.0000
191 -29038.2749257102  -0.001381728260 0.00220334  0.00001765  0.0002552 0.0000
192 -29038.2726401098   0.002285600447 0.00078652  0.00000614  0.0002892 0.0000
193 -29038.2735577541  -0.000917644284 0.00158472  0.00001253  0.0002516 0.0000
194 -29038.2744154009  -0.000857646792 0.00124310  0.00001002  0.0002683 0.0000
195 -29038.2741205811   0.000294819758 0.00091517  0.00000740  0.0002618 0.0000
196 -29038.2739593785   0.000161202599 0.00119791  0.00000956  0.0002487 0.0000
197 -29038.2734639953   0.000495383178 0.00038327  0.00000329  0.0002503 0.0000
198 -29038.2738722716  -0.000408276319 0.00127651  0.00001009  0.0002223 0.0000
199 -29038.2739113580  -0.000039086335 0.00126379  0.00001010  0.0002362 0.0000
               *** Restarting incremental Fock matrix formation ***
                                   *** Resetting DIIS ***
200 -29038.2726579083   0.001253449645 0.00006236  0.00000078  0.0002307 0.0000
201 -29038.2729830634  -0.000325155092 0.00007742  0.00000082  0.0001943 0.0000
202 -29038.2726199405   0.000363122876 0.00008200  0.00000079  0.0001889 0.0000
203 -29038.2727460310  -0.000126090461 0.00009843  0.00000091  0.0001887 0.0000
204 -29038.2726282637   0.000117767329 0.00015013  0.00000137  0.0001872 0.0000
205 -29038.2730918730  -0.000463609340 0.00030024  0.00000271  0.0001825 0.0000
206 -29038.2728322987   0.000259574284 0.00030406  0.00000273  0.0001777 0.0000
207 -29038.2728797578  -0.000047459096 0.00026964  0.00000242  0.0001747 0.0000
208 -29038.2728396246   0.000040133240 0.00042976  0.00000383  0.0001688 0.0000
209 -29038.2727271772   0.000112447422 0.00014076  0.00000131  0.0001669 0.0000
210 -29038.2732175592  -0.000490382023 0.00095338  0.00000845  0.0001537 0.0000
211 -29038.2725574728   0.000660086363 0.00045406  0.00000391  0.0001656 0.0000
212 -29038.2728036168  -0.000246143929 0.00068891  0.00000605  0.0001552 0.0000
213 -29038.2730387149  -0.000235098178 0.00064980  0.00000583  0.0001502 0.0000
214 -29038.2731182245  -0.000079509566 0.00054981  0.00000497  0.0001419 0.0000
215 -29038.2730350695   0.000083154984 0.00081131  0.00000728  0.0001306 0.0000
216 -29038.2727845634   0.000250506098 0.00015533  0.00000136  0.0001326 0.0000
217 -29038.2730205116  -0.000235948162 0.00093423  0.00000828  0.0001150 0.0000
218 -29038.2732043833  -0.000183871722 0.00075588  0.00000687  0.0001308 0.0000
219 -29038.2731966573   0.000007726023 0.00072451  0.00000660  0.0001247 0.0000
               *** Restarting incremental Fock matrix formation ***
                                   *** Resetting DIIS ***
220 -29038.2726912191   0.000505438147 0.00003722  0.00000049  0.0001198 0.0000
221 -29038.2728724412  -0.000181222109 0.00004726  0.00000052  0.0001013 0.0000
222 -29038.2726813263   0.000191114894 0.00004922  0.00000050  0.0000986 0.0000
223 -29038.2727320625  -0.000050736158 0.00005702  0.00000055  0.0001004 0.0000
224 -29038.2726964930   0.000035569519 0.00008106  0.00000078  0.0001002 0.0000
225 -29038.2729347487  -0.000238255721 0.00015829  0.00000150  0.0000987 0.0000
226 -29038.2728563609   0.000078387755 0.00024022  0.00000227  0.0000954 0.0000
227 -29038.2727382227   0.000118138232 0.00009697  0.00000094  0.0000973 0.0000
228 -29038.2730831332  -0.000344910502 0.00047651  0.00000447  0.0000922 0.0000
229 -29038.2725041754   0.000578957781 0.00019665  0.00000179  0.0000995 0.0000
230 -29038.2729668539  -0.000462678439 0.00038712  0.00000360  0.0000946 0.0000
231 -29038.2729755522  -0.000008698273 0.00040593  0.00000385  0.0000939 0.0000
232 -29038.2730843779  -0.000108825785 0.00030566  0.00000292  0.0000961 0.0000
233 -29038.2729896197   0.000094758245 0.00063257  0.00000598  0.0000931 0.0000
234 -29038.2724609857   0.000528633980 0.00038481  0.00000352  0.0001027 0.0000
235 -29038.2732477451  -0.000786759436 0.00078694  0.00000734  0.0000944 0.0000
236 -29038.2730093479   0.000238397221 0.00031336  0.00000307  0.0001045 0.0000
237 -29038.2733749614  -0.000365613487 0.00084557  0.00000802  0.0000907 0.0000
238 -29038.2728427626   0.000532198785 0.00015984  0.00000144  0.0001046 0.0000
239 -29038.2728880912  -0.000045328547 0.00059958  0.00000566  0.0000790 0.0000
               *** Restarting incremental Fock matrix formation ***
                                   *** Resetting DIIS ***
240 -29038.2727065848   0.000181506392 0.00002407  0.00000034  0.0000917 0.0000
241 -29038.2728455015  -0.000138916697 0.00002866  0.00000034  0.0000762 0.0000
242 -29038.2727064795   0.000139021980 0.00002915  0.00000032  0.0000739 0.0000
243 -29038.2727011409   0.000005338614 0.00003311  0.00000035  0.0000741 0.0000
244 -29038.2726993126   0.000001828321 0.00004405  0.00000046  0.0000741 0.0000
245 -29038.2727898149  -0.000090502308 0.00007698  0.00000079  0.0000730 0.0000
246 -29038.2727792801   0.000010534735 0.00013184  0.00000134  0.0000709 0.0000
247 -29038.2727208351   0.000058445083 0.00006372  0.00000066  0.0000703 0.0000
248 -29038.2728247812  -0.000103946142 0.00020921  0.00000211  0.0000670 0.0000
249 -29038.2726605354   0.000164245845 0.00004773  0.00000046  0.0000691 0.0000
250 -29038.2727590519  -0.000098516597 0.00013247  0.00000132  0.0000651 0.0000
251 -29038.2728025808  -0.000043528846 0.00025318  0.00000252  0.0000642 0.0000
252 -29038.2727264694   0.000076111384 0.00000613  0.00000012  0.0000655 0.0000
253 -29038.2728365370  -0.000110067540 0.00032160  0.00000316  0.0000580 0.0000
254 -29038.2726946975   0.000141839449 0.00005696  0.00000055  0.0000628 0.0000
255 -29038.2727699364  -0.000075238899 0.00022367  0.00000217  0.0000559 0.0000
256 -29038.2728443795  -0.000074443135 0.00032729  0.00000318  0.0000585 0.0000
257 -29038.2727237202   0.000120659319 0.00007511  0.00000072  0.0000628 0.0000
258 -29038.2727883170  -0.000064596799 0.00024737  0.00000236  0.0000558 0.0000
259 -29038.2728560332  -0.000067716210 0.00032411  0.00000309  0.0000595 0.0000
               *** Restarting incremental Fock matrix formation ***
                                   *** Resetting DIIS ***
260 -29038.2727122074   0.000143825855 0.00002056  0.00000024  0.0000627 0.0000
261 -29038.2727385858  -0.000026378424 0.00002591  0.00000025  0.0000545 0.0000
262 -29038.2727114655   0.000027120324 0.00002668  0.00000025  0.0000535 0.0000
263 -29038.2727181286  -0.000006663176 0.00002881  0.00000026  0.0000542 0.0000
264 -29038.2727144400   0.000003688685 0.00003665  0.00000033  0.0000543 0.0000
265 -29038.2727429449  -0.000028504892 0.00006031  0.00000054  0.0000539 0.0000
266 -29038.2727457437  -0.000002798832 0.00009714  0.00000086  0.0000530 0.0000
267 -29038.2727368127   0.000008931027 0.00006829  0.00000061  0.0000534 0.0000
268 -29038.2727611443  -0.000024331654 0.00012901  0.00000113  0.0000526 0.0000
269 -29038.2727177175   0.000043426771 0.00003459  0.00000032  0.0000539 0.0000
270 -29038.2728460619  -0.000128344363 0.00026626  0.00000232  0.0000508 0.0000
271 -29038.2726898875   0.000156174399 0.00011646  0.00000098  0.0000566 0.0000
272 -29038.2727387715  -0.000048884045 0.00017408  0.00000149  0.0000538 0.0000
273 -29038.2728312031  -0.000092431503 0.00021853  0.00000190  0.0000530 0.0000
274 -29038.2727855232   0.000045679823 0.00010976  0.00000096  0.0000542 0.0000
275 -29038.2729644017  -0.000178878501 0.00049634  0.00000424  0.0000503 0.0000
276 -29038.2726497074   0.000314694316 0.00042332  0.00000356  0.0000610 0.0000
277 -29038.2728029959  -0.000153288453 0.00054288  0.00000457  0.0000608 0.0000
278 -29038.2728614525  -0.000058456630 0.00013372  0.00000119  0.0000608 0.0000
279 -29038.2729499731  -0.000088520635 0.00069613  0.00000586  0.0000487 0.0000
               *** Restarting incremental Fock matrix formation ***
                                   *** Resetting DIIS ***
280 -29038.2727165557   0.000233417428 0.00001946  0.00000026  0.0000641 0.0000
281 -29038.2727669383  -0.000050382576 0.00002136  0.00000021  0.0000468 0.0000
282 -29038.2727032792   0.000063659063 0.00002336  0.00000019  0.0000417 0.0000
283 -29038.2727203383  -0.000017059050 0.00002448  0.00000020  0.0000431 0.0000
284 -29038.2727124008   0.000007937488 0.00002782  0.00000022  0.0000434 0.0000
285 -29038.2727312211  -0.000018820298 0.00003332  0.00000026  0.0000434 0.0000
286 -29038.2727244170   0.000006804075 0.00005090  0.00000039  0.0000432 0.0000
287 -29038.2727382485  -0.000013831497 0.00006817  0.00000053  0.0000424 0.0000
288 -29038.2727283249   0.000009923559 0.00006102  0.00000047  0.0000426 0.0000
289 -29038.2727420363  -0.000013711404 0.00008189  0.00000063  0.0000426 0.0000
290 -29038.2727293459   0.000012690460 0.00006733  0.00000052  0.0000431 0.0000
291 -29038.2727632723  -0.000033926382 0.00013889  0.00000106  0.0000427 0.0000
292 -29038.2727164348   0.000046837424 0.00002169  0.00000016  0.0000447 0.0000
293 -29038.2727117924   0.000004642472 0.00007324  0.00000055  0.0000422 0.0000
294 -29038.2727801681  -0.000068375721 0.00017629  0.00000134  0.0000422 0.0000
295 -29038.2727322147   0.000047953403 0.00000408  0.00000006  0.0000452 0.0000
296 -29038.2727737701  -0.000041555373 0.00019267  0.00000145  0.0000412 0.0000
297 -29038.2727282075   0.000045562610 0.00001105  0.00000009  0.0000449 0.0000
298 -29038.2727341318  -0.000005924368 0.00011216  0.00000084  0.0000412 0.0000
299 -29038.2728093787  -0.000075246917 0.00024549  0.00000184  0.0000426 0.0000
               *** Restarting incremental Fock matrix formation ***
                                   *** Resetting DIIS ***
300 -29038.2727182437   0.000091135073 0.00001649  0.00000015  0.0000466 0.0000
301 -29038.2727332924  -0.000015048747 0.00002051  0.00000016  0.0000407 0.0000
302 -29038.2727171707   0.000016121667 0.00002086  0.00000016  0.0000400 0.0000
303 -29038.2727200870  -0.000002916284 0.00002172  0.00000016  0.0000406 0.0000
304 -29038.2727172207   0.000002866291 0.00002550  0.00000019  0.0000408 0.0000
305 -29038.2727272309  -0.000010010197 0.00003624  0.00000027  0.0000406 0.0000
306 -29038.2727264454   0.000000785563 0.00005047  0.00000037  0.0000402 0.0000
307 -29038.2727299587  -0.000003513283 0.00005415  0.00000040  0.0000395 0.0000
308 -29038.2727280499   0.000001908804 0.00005617  0.00000041  0.0000396 0.0000
309 -29038.2727341079  -0.000006058035 0.00006828  0.00000050  0.0000396 0.0000
310 -29038.2727316405   0.000002467361 0.00007021  0.00000051  0.0000398 0.0000
311 -29038.2727419064  -0.000010265907 0.00009557  0.00000069  0.0000398 0.0000
312 -29038.2727271806   0.000014725807 0.00004859  0.00000036  0.0000404 0.0000
313 -29038.2727801742  -0.000052993604 0.00021020  0.00000151  0.0000389 0.0000
314 -29038.2726971285   0.000083045699 0.00015414  0.00000108  0.0000431 0.0000
315 -29038.2727308796  -0.000033751050 0.00016043  0.00000114  0.0000429 0.0000
316 -29038.2727538386  -0.000022959030 0.00008663  0.00000063  0.0000410 0.0000
317 -29038.2727538736  -0.000000034997 0.00016564  0.00000119  0.0000390 0.0000
318 -29038.2727630513  -0.000009177678 0.00009351  0.00000068  0.0000409 0.0000
319 -29038.2727627833   0.000000267955 0.00025686  0.00000183  0.0000386 0.0000
               *** Restarting incremental Fock matrix formation ***
                                   *** Resetting DIIS ***
320 -29038.2727196402   0.000043143122 0.00001511  0.00000013  0.0000430 0.0000
321 -29038.2727176770   0.000001963239 0.00001894  0.00000015  0.0000368 0.0000
322 -29038.2727217479  -0.000004070956 0.00001918  0.00000014  0.0000358 0.0000
323 -29038.2727201934   0.000001554530 0.00001978  0.00000014  0.0000364 0.0000
324 -29038.2727226739  -0.000002480541 0.00002255  0.00000016  0.0000366 0.0000
325 -29038.2727224899   0.000000184038 0.00003018  0.00000021  0.0000365 0.0000
326 -29038.2727273027  -0.000004812769 0.00004124  0.00000029  0.0000362 0.0000
327 -29038.2727264888   0.000000813889 0.00004660  0.00000033  0.0000356 0.0000
328 -29038.2727279933  -0.000001504537 0.00004760  0.00000033  0.0000355 0.0000
329 -29038.2727287286  -0.000000735272 0.00005627  0.00000039  0.0000355 0.0000
330 -29038.2727306481  -0.000001919470 0.00006011  0.00000042  0.0000357 0.0000
331 -29038.2727328172  -0.000002169141 0.00007407  0.00000052  0.0000357 0.0000
332 -29038.2727306135   0.000002203658 0.00006198  0.00000043  0.0000360 0.0000
333 -29038.2727449262  -0.000014312609 0.00012319  0.00000085  0.0000356 0.0000
334 -29038.2727077356   0.000037190570 0.00004869  0.00000032  0.0000372 0.0000
335 -29038.2727280176  -0.000020281983 0.00008220  0.00000056  0.0000361 0.0000
336 -29038.2727463010  -0.000018283466 0.00011861  0.00000082  0.0000354 0.0000
337 -29038.2727342669   0.000012034092 0.00005397  0.00000038  0.0000364 0.0000
338 -29038.2727646314  -0.000030364477 0.00019335  0.00000133  0.0000345 0.0000
339 -29038.2726952637   0.000069367736 0.00014853  0.00000100  0.0000381 0.0000
               *** Restarting incremental Fock matrix formation ***
                                   *** Resetting DIIS ***
340 -29038.2727204071  -0.000025143436 0.00001774  0.00000012  0.0000386 0.0000
341 -29038.2727174113   0.000002995785 0.00001918  0.00000013  0.0000362 0.0000
342 -29038.2727211320  -0.000003720652 0.00001920  0.00000013  0.0000350 0.0000
343 -29038.2727202217   0.000000910328 0.00002055  0.00000014  0.0000346 0.0000
344 -29038.2727226100  -0.000002388348 0.00002417  0.00000017  0.0000344 0.0000
345 -29038.2727227322  -0.000000122240 0.00002963  0.00000020  0.0000342 0.0000
346 -29038.2727250638  -0.000002331570 0.00003583  0.00000025  0.0000338 0.0000
347 -29038.2727254741  -0.000000410313 0.00004142  0.00000028  0.0000335 0.0000
348 -29038.2727273145  -0.000001840395 0.00004652  0.00000032  0.0000332 0.0000
349 -29038.2727279116  -0.000000597101 0.00005216  0.00000036  0.0000334 0.0000
350 -29038.2727297851  -0.000001873457 0.00005791  0.00000040  0.0000335 0.0000
351 -29038.2727305961  -0.000000810986 0.00006408  0.00000044  0.0000336 0.0000
352 -29038.2727322956  -0.000001699580 0.00006936  0.00000047  0.0000337 0.0000
353 -29038.2727335675  -0.000001271856 0.00007720  0.00000053  0.0000338 0.0000
354 -29038.2727338256  -0.000000258056 0.00007614  0.00000052  0.0000339 0.0000
355 -29038.2727419730  -0.000008147457 0.00011543  0.00000078  0.0000338 0.0000
356 -29038.2727104704   0.000031502626 0.00004157  0.00000027  0.0000348 0.0000
357 -29038.2727328435  -0.000022373126 0.00009645  0.00000065  0.0000332 0.0000
358 -29038.2727483549  -0.000015511352 0.00013343  0.00000090  0.0000335 0.0000
359 -29038.2727304367   0.000017918181 0.00002998  0.00000022  0.0000346 0.0000
               *** Restarting incremental Fock matrix formation ***
                                   *** Resetting DIIS ***
360 -29038.2727211555   0.000009281222 0.00001421  0.00000010  0.0000314 0.0000
361 -29038.2727214910  -0.000000335545 0.00001533  0.00000011  0.0000316 0.0000
362 -29038.2727216133  -0.000000122342 0.00001649  0.00000011  0.0000320 0.0000
363 -29038.2727223114  -0.000000698099 0.00001898  0.00000013  0.0000321 0.0000
364 -29038.2727235992  -0.000001287717 0.00002549  0.00000017  0.0000320 0.0000
365 -29038.2727250214  -0.000001422279 0.00003283  0.00000022  0.0000318 0.0000
366 -29038.2727256273  -0.000000605818 0.00003677  0.00000025  0.0000314 0.0000
367 -29038.2727259948  -0.000000367545 0.00003875  0.00000026  0.0000310 0.0000
368 -29038.2727269481  -0.000000953281 0.00004402  0.00000030  0.0000309 0.0000
369 -29038.2727278670  -0.000000918862 0.00004903  0.00000033  0.0000311 0.0000
370 -29038.2727289988  -0.000001131826 0.00005520  0.00000037  0.0000312 0.0000
371 -29038.2727294873  -0.000000488526 0.00005791  0.00000039  0.0000313 0.0000
372 -29038.2727314524  -0.000001965054 0.00006790  0.00000045  0.0000313 0.0000
373 -29038.2727296769   0.000001775439 0.00005865  0.00000039  0.0000315 0.0000
374 -29038.2727413759  -0.000011698994 0.00011741  0.00000078  0.0000312 0.0000
375 -29038.2727084815   0.000032894415 0.00007443  0.00000048  0.0000327 0.0000
376 -29038.2727291655  -0.000020684027 0.00009313  0.00000061  0.0000325 0.0000
377 -29038.2727363872  -0.000007221657 0.00007487  0.00000050  0.0000314 0.0000
378 -29038.2727378016  -0.000001414388 0.00009006  0.00000060  0.0000309 0.0000
379 -29038.2727382509  -0.000000449287 0.00008056  0.00000054  0.0000312 0.0000
               *** Restarting incremental Fock matrix formation ***
                                   *** Resetting DIIS ***
380 -29038.2727217751   0.000016475762 0.00001254  0.00000009  0.0000307 0.0000
381 -29038.2727228663  -0.000001091212 0.00001449  0.00000010  0.0000289 0.0000
382 -29038.2727220121   0.000000854194 0.00001504  0.00000010  0.0000296 0.0000
383 -29038.2727225128  -0.000000500735 0.00001606  0.00000011  0.0000298 0.0000
384 -29038.2727227193  -0.000000206455 0.00001932  0.00000013  0.0000298 0.0000
385 -29038.2727243633  -0.000001643981 0.00002612  0.00000017  0.0000297 0.0000
386 -29038.2727249360  -0.000000572734 0.00003146  0.00000021  0.0000294 0.0000
387 -29038.2727254048  -0.000000468783 0.00003351  0.00000022  0.0000290 0.0000
388 -29038.2727257194  -0.000000314594 0.00003636  0.00000024  0.0000287 0.0000
389 -29038.2727266462  -0.000000926801 0.00004108  0.00000027  0.0000287 0.0000
390 -29038.2727272812  -0.000000634980 0.00004582  0.00000030  0.0000288 0.0000
391 -29038.2727281473  -0.000000866090 0.00005034  0.00000033  0.0000289 0.0000
392 -29038.2727286447  -0.000000497410 0.00005387  0.00000036  0.0000290 0.0000
393 -29038.2727298826  -0.000001237917 0.00006045  0.00000040  0.0000290 0.0000
394 -29038.2727296338   0.000000248801 0.00005940  0.00000039  0.0000292 0.0000
395 -29038.2727342302  -0.000004596415 0.00008532  0.00000056  0.0000290 0.0000
396 -29038.2727201804   0.000014049790 0.00000226  0.00000003  0.0000297 0.0000
397 -29038.2727245062  -0.000004325815 0.00004440  0.00000029  0.0000278 0.0000
398 -29038.2727393828  -0.000014876558 0.00010936  0.00000072  0.0000280 0.0000
399 -29038.2727249361   0.000014446647 0.00001051  0.00000008  0.0000296 0.0000
               *** Restarting incremental Fock matrix formation ***
                                   *** Resetting DIIS ***
400 -29038.2727222447   0.000002691453 0.00001248  0.00000008  0.0000271 0.0000
401 -29038.2727222782  -0.000000033499 0.00001312  0.00000009  0.0000277 0.0000
402 -29038.2727225409  -0.000000262695 0.00001415  0.00000009  0.0000279 0.0000
403 -29038.2727228719  -0.000000331012 0.00001652  0.00000011  0.0000280 0.0000
404 -29038.2727239998  -0.000001127923 0.00002239  0.00000015  0.0000279 0.0000
405 -29038.2727245876  -0.000000587734 0.00002692  0.00000018  0.0000276 0.0000
406 -29038.2727250217  -0.000000434167 0.00002965  0.00000019  0.0000273 0.0000
407 -29038.2727253175  -0.000000295782 0.00003208  0.00000021  0.0000270 0.0000
408 -29038.2727259313  -0.000000613822 0.00003589  0.00000023  0.0000269 0.0000
409 -29038.2727265031  -0.000000571828 0.00004009  0.00000026  0.0000269 0.0000
410 -29038.2727271366  -0.000000633496 0.00004412  0.00000029  0.0000270 0.0000
411 -29038.2727276465  -0.000000509819 0.00004770  0.00000031  0.0000271 0.0000
412 -29038.2727283776  -0.000000731103 0.00005222  0.00000034  0.0000271 0.0000
413 -29038.2727288477  -0.000000470136 0.00005539  0.00000036  0.0000272 0.0000
414 -29038.2727300465  -0.000001198758 0.00006283  0.00000041  0.0000272 0.0000
415 -29038.2727286905   0.000001355944 0.00005379  0.00000035  0.0000273 0.0000
416 -29038.2727384452  -0.000009754654 0.00011567  0.00000075  0.0000270 0.0000
417 -29038.2727088539   0.000029591232 0.00010432  0.00000066  0.0000286 0.0000
418 -29038.2727304959  -0.000021641987 0.00010737  0.00000068  0.0000293 0.0000
419 -29038.2727293642   0.000001131677 0.00003617  0.00000024  0.0000277 0.0000
               *** Restarting incremental Fock matrix formation ***
                                   *** Resetting DIIS ***
420 -29038.2727226454   0.000006718819 0.00001139  0.00000008  0.0000258 0.0000
421 -29038.2727228752  -0.000000229800 0.00001220  0.00000008  0.0000257 0.0000
422 -29038.2727228226   0.000000052587 0.00001289  0.00000008  0.0000260 0.0000
423 -29038.2727232010  -0.000000378357 0.00001443  0.00000009  0.0000261 0.0000
424 -29038.2727236924  -0.000000491364 0.00001854  0.00000012  0.0000261 0.0000
425 -29038.2727244494  -0.000000756998 0.00002349  0.00000015  0.0000260 0.0000
426 -29038.2727247919  -0.000000342534 0.00002659  0.00000017  0.0000257 0.0000
427 -29038.2727250552  -0.000000263291 0.00002842  0.00000018  0.0000254 0.0000
428 -29038.2727254159  -0.000000360680 0.00003138  0.00000020  0.0000251 0.0000
429 -29038.2727259311  -0.000000515254 0.00003508  0.00000023  0.0000251 0.0000
430 -29038.2727264171  -0.000000485998 0.00003892  0.00000025  0.0000252 0.0000
431 -29038.2727268658  -0.000000448686 0.00004212  0.00000027  0.0000253 0.0000
432 -29038.2727273774  -0.000000511587 0.00004589  0.00000030  0.0000253 0.0000
433 -29038.2727278623  -0.000000484863 0.00004927  0.00000032  0.0000254 0.0000
434 -29038.2727285406  -0.000000678308 0.00005413  0.00000035  0.0000254 0.0000
435 -29038.2727285571  -0.000000016498 0.00005402  0.00000035  0.0000255 0.0000
436 -29038.2727312285  -0.000002671488 0.00007323  0.00000047  0.0000254 0.0000
437 -29038.2727222412   0.000008987317 0.00000479  0.00000004  0.0000258 0.0000
438 -29038.2727344226  -0.000012181365 0.00008690  0.00000056  0.0000239 0.0000
439 -29038.2727320537   0.000002368874 0.00007772  0.00000050  0.0000254 0.0000
               *** Restarting incremental Fock matrix formation ***
                                   *** Resetting DIIS ***
440 -29038.2727230252   0.000009028532 0.00000982  0.00000007  0.0000255 0.0000
441 -29038.2727231712  -0.000000146039 0.00001183  0.00000008  0.0000235 0.0000
442 -29038.2727232666  -0.000000095406 0.00001208  0.00000008  0.0000239 0.0000
443 -29038.2727232793  -0.000000012646 0.00001253  0.00000008  0.0000241 0.0000
444 -29038.2727235888  -0.000000309527 0.00001430  0.00000009  0.0000242 0.0000
445 -29038.2727241523  -0.000000563537 0.00001879  0.00000012  0.0000241 0.0000
446 -29038.2727246505  -0.000000498141 0.00002268  0.00000015  0.0000239 0.0000
447 -29038.2727248571  -0.000000206637 0.00002486  0.00000016  0.0000237 0.0000
448 -29038.2727250702  -0.000000213109 0.00002669  0.00000017  0.0000234 0.0000
449 -29038.2727253940  -0.000000323769 0.00002963  0.00000019  0.0000233 0.0000
450 -29038.2727257857  -0.000000391679 0.00003298  0.00000021  0.0000233 0.0000
451 -29038.2727261600  -0.000000374333 0.00003630  0.00000023  0.0000233 0.0000
452 -29038.2727264983  -0.000000338296 0.00003911  0.00000025  0.0000234 0.0000
453 -29038.2727269369  -0.000000438566 0.00004271  0.00000028  0.0000234 0.0000
454 -29038.2727272698  -0.000000332933 0.00004538  0.00000029  0.0000235 0.0000
455 -29038.2727279400  -0.000000670174 0.00005075  0.00000033  0.0000235 0.0000
456 -29038.2727275127   0.000000427332 0.00004701  0.00000030  0.0000236 0.0000
457 -29038.2727314040  -0.000003891299 0.00007853  0.00000050  0.0000234 0.0000
458 -29038.2727183397   0.000013064251 0.00003852  0.00000024  0.0000242 0.0000
459 -29038.2727265216  -0.000008181931 0.00005735  0.00000036  0.0000236 0.0000
               *** Restarting incremental Fock matrix formation ***
                                   *** Resetting DIIS ***
460 -29038.2727232974   0.000003224231 0.00000962  0.00000007  0.0000231 0.0000
461 -29038.2727234826  -0.000000185159 0.00001061  0.00000007  0.0000222 0.0000
462 -29038.2727233875   0.000000095089 0.00001093  0.00000007  0.0000226 0.0000
463 -29038.2727235360  -0.000000148539 0.00001169  0.00000008  0.0000227 0.0000
464 -29038.2727237648  -0.000000228752 0.00001400  0.00000009  0.0000228 0.0000
465 -29038.2727243311  -0.000000566382 0.00001822  0.00000012  0.0000227 0.0000
466 -29038.2727246171  -0.000000285912 0.00002126  0.00000014  0.0000225 0.0000
467 -29038.2727248255  -0.000000208442 0.00002308  0.00000015  0.0000222 0.0000
468 -29038.2727250094  -0.000000183911 0.00002507  0.00000016  0.0000220 0.0000
469 -29038.2727253256  -0.000000316169 0.00002787  0.00000018  0.0000218 0.0000
470 -29038.2727256342  -0.000000308621 0.00003098  0.00000020  0.0000218 0.0000
471 -29038.2727259532  -0.000000318996 0.00003384  0.00000022  0.0000219 0.0000
472 -29038.2727262435  -0.000000290278 0.00003660  0.00000024  0.0000219 0.0000
473 -29038.2727266037  -0.000000360182 0.00003973  0.00000026  0.0000220 0.0000
474 -29038.2727269225  -0.000000318800 0.00004262  0.00000027  0.0000220 0.0000
475 -29038.2727273507  -0.000000428252 0.00004627  0.00000030  0.0000220 0.0000
476 -29038.2727274703  -0.000000119580 0.00004725  0.00000030  0.0000221 0.0000
477 -29038.2727287782  -0.000001307868 0.00005887  0.00000038  0.0000220 0.0000
478 -29038.2727248301   0.000003948076 0.00002146  0.00000014  0.0000223 0.0000
479 -29038.2727357888  -0.000010958734 0.00011326  0.00000072  0.0000211 0.0000
               *** Restarting incremental Fock matrix formation ***
                                   *** Resetting DIIS ***
480 -29038.2727235775   0.000012211352 0.00000832  0.00000006  0.0000233 0.0000
481 -29038.2727250993  -0.000001521825 0.00001036  0.00000007  0.0000207 0.0000
482 -29038.2727235261   0.000001573178 0.00001044  0.00000007  0.0000206 0.0000
483 -29038.2727238032  -0.000000277083 0.00001058  0.00000007  0.0000209 0.0000
484 -29038.2727235632   0.000000239961 0.00001168  0.00000008  0.0000210 0.0000
485 -29038.2727244513  -0.000000888111 0.00001490  0.00000010  0.0000210 0.0000
486 -29038.2727244902  -0.000000038832 0.00001826  0.00000012  0.0000209 0.0000
487 -29038.2727248570  -0.000000366828 0.00002050  0.00000013  0.0000207 0.0000
488 -29038.2727248373   0.000000019743 0.00002207  0.00000014  0.0000205 0.0000
489 -29038.2727251608  -0.000000323536 0.00002420  0.00000016  0.0000203 0.0000
490 -29038.2727252888  -0.000000128013 0.00002681  0.00000017  0.0000202 0.0000
491 -29038.2727256354  -0.000000346594 0.00002967  0.00000019  0.0000202 0.0000
492 -29038.2727257815  -0.000000146152 0.00003206  0.00000021  0.0000203 0.0000
493 -29038.2727261098  -0.000000328226 0.00003484  0.00000022  0.0000203 0.0000
494 -29038.2727263012  -0.000000191460 0.00003735  0.00000024  0.0000203 0.0000
495 -29038.2727266972  -0.000000395943 0.00004081  0.00000026  0.0000204 0.0000
496 -29038.2727267507  -0.000000053522 0.00004164  0.00000027  0.0000204 0.0000
497 -29038.2727277505  -0.000000999818 0.00005131  0.00000033  0.0000204 0.0000
498 -29038.2727252523   0.000002498266 0.00002468  0.00000016  0.0000206 0.0000
499 -29038.2727337218  -0.000008469549 0.00010634  0.00000068  0.0000197 0.0000
               *** Restarting incremental Fock matrix formation ***
                                   *** Resetting DIIS ***
500 -29038.2727238092   0.000009912634 0.00000772  0.00000006  0.0000217 0.0000
501 -29038.2727250231  -0.000001213928 0.00000963  0.00000007  0.0000192 0.0000
502 -29038.2727237687   0.000001254390 0.00000968  0.00000006  0.0000192 0.0000
503 -29038.2727239991  -0.000000230422 0.00000980  0.00000006  0.0000194 0.0000
504 -29038.2727238104   0.000000188760 0.00001076  0.00000007  0.0000195 0.0000
505 -29038.2727245147  -0.000000704375 0.00001363  0.00000009  0.0000195 0.0000
506 -29038.2727245534  -0.000000038646 0.00001670  0.00000011  0.0000194 0.0000
507 -29038.2727248602  -0.000000306776 0.00001877  0.00000012  0.0000192 0.0000
508 -29038.2727248459   0.000000014235 0.00002023  0.00000013  0.0000190 0.0000
509 -29038.2727251027  -0.000000256816 0.00002214  0.00000014  0.0000188 0.0000
510 -29038.2727252043  -0.000000101580 0.00002450  0.00000016  0.0000187 0.0000
511 -29038.2727254845  -0.000000280215 0.00002711  0.00000017  0.0000188 0.0000
512 -29038.2727256041  -0.000000119519 0.00002932  0.00000019  0.0000188 0.0000
513 -29038.2727258673  -0.000000263237 0.00003182  0.00000020  0.0000188 0.0000
514 -29038.2727260268  -0.000000159518 0.00003416  0.00000022  0.0000189 0.0000
515 -29038.2727263325  -0.000000305728 0.00003716  0.00000024  0.0000189 0.0000
516 -29038.2727264253  -0.000000092761 0.00003846  0.00000025  0.0000189 0.0000
517 -29038.2727270538  -0.000000628475 0.00004521  0.00000029  0.0000189 0.0000
518 -29038.2727258083   0.000001245433 0.00003039  0.00000020  0.0000190 0.0000
519 -29038.2727317972  -0.000005988804 0.00009690  0.00000062  0.0000185 0.0000
               *** Restarting incremental Fock matrix formation ***
                                   *** Resetting DIIS ***
520 -29038.2727240072   0.000007789982 0.00000715  0.00000006  0.0000202 0.0000
521 -29038.2727249032  -0.000000896063 0.00000895  0.00000006  0.0000179 0.0000
522 -29038.2727239883   0.000000914955 0.00000900  0.00000006  0.0000178 0.0000
523 -29038.2727241692  -0.000000180920 0.00000909  0.00000006  0.0000180 0.0000
524 -29038.2727240366   0.000000132590 0.00000995  0.00000006  0.0000181 0.0000
525 -29038.2727245711  -0.000000534492 0.00001251  0.00000008  0.0000181 0.0000
526 -29038.2727246202  -0.000000049102 0.00001532  0.00000010  0.0000180 0.0000
527 -29038.2727248661  -0.000000245946 0.00001724  0.00000011  0.0000178 0.0000
                 **** Energy Check signals convergence ****

               *****************************************************
               *                     SUCCESS                       *
               *           SCF CONVERGED AFTER 528 CYCLES          *
               *****************************************************


----------------
TOTAL SCF ENERGY
----------------

Total Energy       :       -29038.27272486 Eh         -790171.57239 eV

Components:
Nuclear Repulsion  :          915.84570808 Eh           24921.42870 eV
Electronic Energy  :       -29954.11843294 Eh         -815093.00109 eV
One Electron Energy:       -41238.78970326 Eh        -1122164.51757 eV
Two Electron Energy:        11284.67127032 Eh          307071.51648 eV

Virial components:
Potential Energy   :       -83699.59497760 Eh        -2277581.76936 eV
Kinetic Energy     :        54661.32225274 Eh         1487410.19697 eV
Virial Ratio       :            1.53123985


---------------
SCF CONVERGENCE
---------------

  Last Energy change         ...    4.5075e-09  Tolerance :   1.0000e-08
  Last MAX-Density change    ...    1.8598e-05  Tolerance :   1.0000e-07
  Last RMS-Density change    ...    1.1920e-07  Tolerance :   5.0000e-09
  Last DIIS Error            ...    1.7638e-05  Tolerance :   5.0000e-07

             **** THE GBW FILE WAS UPDATED (/home/nikolayandreadi_2125/_scratch/MP2/NpOH4.gbw) ****
             **** DENSITY FILE WAS UPDATED (/home/nikolayandreadi_2125/_scratch/MP2/NpOH4.scfp.tmp) ****
             **** ENERGY FILE WAS UPDATED (/home/nikolayandreadi_2125/_scratch/MP2/NpOH4.en.tmp) ****
----------------------
UHF SPIN CONTAMINATION
----------------------

Expectation value of <S**2>     :     1.748656
Ideal value S*(S+1) for S=0.5   :     0.750000
Deviation                       :     0.998656

----------------
ORBITAL ENERGIES
----------------
                 SPIN UP ORBITALS
  NO   OCC          E(Eh)            E(eV) 
   0   1.0000   -4373.416946   -119006.7253 
   1   1.0000    -829.074644    -22560.2680 
   2   1.0000    -693.400745    -18868.3935 
   3   1.0000    -693.400571    -18868.3888 
   4   1.0000    -693.400332    -18868.3823 
   5   1.0000    -213.503806     -5809.7339 
   6   1.0000    -175.217326     -4767.9058 
   7   1.0000    -175.209314     -4767.6878 
   8   1.0000    -175.208026     -4767.6528 
   9   1.0000    -139.585210     -3798.3067 
  10   1.0000    -139.582254     -3798.2262 
  11   1.0000    -139.581251     -3798.1989 
  12   1.0000    -139.569406     -3797.8766 
  13   1.0000    -139.568357     -3797.8481 
  14   1.0000     -56.626466     -1540.8845 
  15   1.0000     -43.834898     -1192.8082 
  16   1.0000     -43.834020     -1192.7843 
  17   1.0000     -43.831650     -1192.7198 
  18   1.0000     -30.179515      -821.2264 
  19   1.0000     -30.178161      -821.1895 
  20   1.0000     -30.177027      -821.1586 
  21   1.0000     -30.174579      -821.0920 
  22   1.0000     -30.173483      -821.0622 
  23   1.0000     -20.539158      -558.8989 
  24   1.0000     -20.537285      -558.8479 
  25   1.0000     -20.537274      -558.8476 
  26   1.0000     -20.534186      -558.7636 
  27   1.0000     -16.103186      -438.1900 
  28   1.0000     -16.100911      -438.1281 
  29   1.0000     -16.056576      -436.9217 
  30   1.0000     -16.055433      -436.8905 
  31   1.0000     -16.054822      -436.8739 
  32   1.0000     -16.050549      -436.7576 
  33   1.0000     -16.048833      -436.7110 
  34   1.0000     -13.323180      -362.5422 
  35   1.0000      -9.245027      -251.5700 
  36   1.0000      -9.203303      -250.4346 
  37   1.0000      -9.200657      -250.3626 
  38   1.0000      -4.583082      -124.7120 
  39   1.0000      -4.558938      -124.0550 
  40   1.0000      -4.555927      -123.9731 
  41   1.0000      -4.473099      -121.7192 
  42   1.0000      -4.466387      -121.5366 
  43   1.0000      -2.304819       -62.7173 
  44   1.0000      -1.345297       -36.6074 
  45   1.0000      -1.340958       -36.4893 
  46   1.0000      -1.334903       -36.3246 
  47   1.0000      -1.275222       -34.7005 
  48   1.0000      -1.148568       -31.2541 
  49   1.0000      -1.125197       -30.6182 
  50   1.0000      -1.118856       -30.4456 
  51   1.0000      -0.676940       -18.4205 
  52   1.0000      -0.643368       -17.5069 
  53   1.0000      -0.638963       -17.3871 
  54   1.0000      -0.631460       -17.1829 
  55   1.0000      -0.509182       -13.8555 
  56   1.0000      -0.503990       -13.7143 
  57   1.0000      -0.497665       -13.5422 
  58   1.0000      -0.481199       -13.0941 
  59   1.0000      -0.476852       -12.9758 
  60   1.0000      -0.475806       -12.9473 
  61   1.0000      -0.473475       -12.8839 
  62   1.0000      -0.469153       -12.7663 
  63   1.0000      -0.455092       -12.3837 
  64   1.0000      -0.453212       -12.3325 
  65   0.0000       0.026090         0.7099 
  66   0.0000       0.110389         3.0038 
  67   0.0000       0.133072         3.6211 
  68   0.0000       0.134892         3.6706 
  69   0.0000       0.140558         3.8248 
  70   0.0000       0.146836         3.9956 
  71   0.0000       0.147689         4.0188 
  72   0.0000       0.151718         4.1285 
  73   0.0000       0.166395         4.5278 
  74   0.0000       0.171177         4.6580 
  75   0.0000       0.184191         5.0121 
  76   0.0000       0.196190         5.3386 
  77   0.0000       0.199124         5.4184 
  78   0.0000       0.202136         5.5004 
  79   0.0000       0.215088         5.8528 
  80   0.0000       0.218583         5.9479 
  81   0.0000       0.224747         6.1157 
  82   0.0000       0.233809         6.3623 
  83   0.0000       0.235063         6.3964 
  84   0.0000       0.240946         6.5565 
  85   0.0000       0.244773         6.6606 
  86   0.0000       0.306606         8.3432 
  87   0.0000       0.310819         8.4578 
  88   0.0000       0.327889         8.9223 
  89   0.0000       0.357471         9.7273 
  90   0.0000       0.533302        14.5119 
  91   0.0000       0.545329        14.8391 
  92   0.0000       0.561994        15.2926 
  93   0.0000       0.567539        15.4435 
  94   0.0000       0.586175        15.9506 
  95   0.0000       0.597812        16.2673 
  96   0.0000       0.603139        16.4122 
  97   0.0000       0.615189        16.7402 
  98   0.0000       0.617323        16.7982 
  99   0.0000       0.627978        17.0882 
 100   0.0000       0.632321        17.2063 
 101   0.0000       0.636977        17.3330 
 102   0.0000       0.652215        17.7477 
 103   0.0000       0.683114        18.5885 
 104   0.0000       0.692267        18.8375 
 105   0.0000       0.694159        18.8890 
 106   0.0000       0.701233        19.0815 
 107   0.0000       0.702902        19.1269 
 108   0.0000       0.713764        19.4225 
 109   0.0000       0.739509        20.1231 
 110   0.0000       0.741060        20.1653 
 111   0.0000       0.753147        20.4942 
 112   0.0000       0.766626        20.8610 
 113   0.0000       0.789665        21.4879 
 114   0.0000       0.795105        21.6359 
 115   0.0000       0.804717        21.8975 
 116   0.0000       0.811076        22.0705 
 117   0.0000       0.823692        22.4138 
 118   0.0000       0.954967        25.9860 
 119   0.0000       0.980898        26.6916 
 120   0.0000       1.022323        27.8188 
 121   0.0000       1.066101        29.0101 
 122   0.0000       1.199510        32.6403 
 123   0.0000       1.268447        34.5162 
 124   0.0000       1.288909        35.0730 
 125   0.0000       1.349620        36.7250 
 126   0.0000       1.351008        36.7628 
 127   0.0000       1.368564        37.2405 
 128   0.0000       1.400185        38.1010 
 129   0.0000       1.451194        39.4890 
 130   0.0000       1.456955        39.6458 
 131   0.0000       1.491656        40.5900 
 132   0.0000       1.642343        44.6904 
 133   0.0000       1.654093        45.0101 
 134   0.0000       1.660974        45.1974 
 135   0.0000       1.676118        45.6095 
 136   0.0000       1.693092        46.0714 
 137   0.0000       1.715845        46.6905 
 138   0.0000       1.719364        46.7863 
 139   0.0000       1.728433        47.0331 
 140   0.0000       1.780374        48.4464 
 141   0.0000       1.808913        49.2230 
 142   0.0000       1.824082        49.6358 
 143   0.0000       1.848690        50.3054 
 144   0.0000       1.866006        50.7766 
 145   0.0000       1.870698        50.9043 
 146   0.0000       1.882590        51.2279 
 147   0.0000       1.895090        51.5680 
 148   0.0000       1.945873        52.9499 
 149   0.0000       1.963128        53.4194 
 150   0.0000       1.977945        53.8226 
 151   0.0000       2.009707        54.6869 
[...]
      f+2     :     0.000457
      f-2     :     0.000597
      f+3     :     0.000707
      f-3     :     0.001155
  3 O s       :     3.897664  s :     3.897664
      pz      :     1.810483  p :     4.907583
      px      :     1.509221
      py      :     1.587879
      dz2     :     0.008230  d :     0.041981
      dxz     :     0.006961
      dyz     :     0.006712
      dx2y2   :     0.007588
      dxy     :     0.012490
      f0      :     0.000497  f :     0.004621
      f+1     :     0.000646
      f-1     :     0.000580
      f+2     :     0.000388
      f-2     :     0.000601
      f+3     :     0.000861
      f-3     :     0.001047
  4 O s       :     3.897806  s :     3.897806
      pz      :     1.506201  p :     4.905117
      px      :     1.799271
      py      :     1.599645
      dz2     :     0.008238  d :     0.042009
      dxz     :     0.007289
      dyz     :     0.011977
      dx2y2   :     0.007260
      dxy     :     0.007246
      f0      :     0.000601  f :     0.004682
      f+1     :     0.000504
      f-1     :     0.001140
      f+2     :     0.000845
      f-2     :     0.000694
      f+3     :     0.000454
      f-3     :     0.000444
  5 H s       :     0.632625  s :     0.632625
      pz      :     0.018047  p :     0.051716
      px      :     0.016176
      py      :     0.017493
  6 H s       :     0.635011  s :     0.635011
      pz      :     0.015980  p :     0.051560
      px      :     0.018028
      py      :     0.017552
  7 H s       :     0.632767  s :     0.632767
      pz      :     0.018520  p :     0.051735
      px      :     0.016096
      py      :     0.017119
  8 H s       :     0.634957  s :     0.634957
      pz      :     0.016035  p :     0.051566
      px      :     0.018560
      py      :     0.016971

SPIN
  0 O s       :     0.003073  s :     0.003073
      pz      :    -0.001956  p :    -0.007885
      px      :     0.000048
      py      :    -0.005976
      dz2     :    -0.000053  d :     0.001278
      dxz     :     0.000020
      dyz     :     0.001069
      dx2y2   :    -0.000020
      dxy     :     0.000261
      f0      :    -0.000007  f :     0.000059
      f+1     :    -0.000001
      f-1     :     0.000044
      f+2     :     0.000008
      f-2     :     0.000011
      f+3     :     0.000006
      f-3     :    -0.000001
  1 Nps       :     0.009971  s :     0.009971
      pz      :     0.011221  p :     0.012800
      px      :    -0.005187
      py      :     0.006766
      dz2     :     0.014830  d :     0.058428
      dxz     :     0.014176
      dyz     :     0.016322
      dx2y2   :    -0.007449
      dxy     :     0.020550
      f0      :     0.166564  f :     0.954380
      f+1     :     0.573948
      f-1     :     0.882540
      f+2     :     0.215048
      f-2     :    -0.022251
      f+3     :    -0.030530
      f-3     :    -0.830939
  2 O s       :    -0.002187  s :    -0.002187
      pz      :    -0.012271  p :    -0.011859
      px      :    -0.000925
      py      :     0.001337
      dz2     :     0.000466  d :    -0.000310
      dxz     :     0.000003
      dyz     :    -0.000026
      dx2y2   :     0.000060
      dxy     :    -0.000813
      f0      :     0.000003  f :    -0.000001
      f+1     :     0.000017
      f-1     :     0.000007
      f+2     :     0.000003
      f-2     :    -0.000001
      f+3     :     0.000005
      f-3     :    -0.000035
  3 O s       :    -0.002198  s :    -0.002198
      pz      :    -0.011971  p :    -0.011931
      px      :    -0.000276
      py      :     0.000316
      dz2     :     0.000417  d :    -0.000311
      dxz     :    -0.000011
      dyz     :     0.000017
      dx2y2   :     0.000144
      dxy     :    -0.000878
      f0      :     0.000002  f :    -0.000001
      f+1     :     0.000014
      f-1     :     0.000009
      f+2     :     0.000003
      f-2     :     0.000001
      f+3     :    -0.000014
      f-3     :    -0.000016
  4 O s       :     0.003070  s :     0.003070
      pz      :    -0.003434  p :    -0.007860
      px      :     0.000877
      py      :    -0.005303
      dz2     :    -0.000198  d :     0.001275
      dxz     :     0.000060
      dyz     :     0.001097
      dx2y2   :    -0.000074
      dxy     :     0.000389
      f0      :    -0.000000  f :     0.000060
      f+1     :    -0.000000
      f-1     :     0.000027
      f+2     :     0.000012
      f-2     :     0.000014
      f+3     :     0.000010
      f-3     :    -0.000003
  5 H s       :     0.000286  s :     0.000286
      pz      :    -0.000058  p :    -0.000043
      px      :     0.000047
      py      :    -0.000032
  6 H s       :    -0.000058  s :    -0.000058
      pz      :    -0.000172  p :    -0.000119
      px      :     0.000005
      py      :     0.000048
  7 H s       :     0.000304  s :     0.000304
      pz      :    -0.000037  p :    -0.000043
      px      :     0.000044
      py      :    -0.000050
  8 H s       :    -0.000060  s :    -0.000060
      pz      :    -0.000179  p :    -0.000117
      px      :     0.000001
      py      :     0.000061


                     *******************************
                     * LOEWDIN POPULATION ANALYSIS *
                     *******************************

-----------------------------------------
LOEWDIN ATOMIC CHARGES AND SPIN DENSITIES
-----------------------------------------
   0 O :   -0.205405   -0.001065
   1 Np:    0.152586    1.030645
   2 O :   -0.213485   -0.013755
   3 O :   -0.213650   -0.013824
   4 O :   -0.204869   -0.001083
   5 H :    0.171995    0.000379
   6 H :    0.170514   -0.000845
   7 H :    0.171773    0.000389
   8 H :    0.170541   -0.000841

--------------------------------------------------
LOEWDIN REDUCED ORBITAL CHARGES AND SPIN DENSITIES
--------------------------------------------------
CHARGE
  0 O s       :     3.410735  s :     3.410735
      pz      :     1.464555  p :     4.704630
      px      :     1.659362
      py      :     1.580714
      dz2     :     0.022225  d :     0.083839
      dxz     :     0.008941
      dyz     :     0.035280
      dx2y2   :     0.009676
      dxy     :     0.007717
      f0      :     0.000759  f :     0.006202
      f+1     :     0.000542
      f-1     :     0.002387
      f+2     :     0.001071
      f-2     :     0.000610
      f+3     :     0.000411
      f-3     :     0.000420
  1 Nps       :    12.157756  s :    12.157756
      pz      :    10.016079  p :    30.054186
      px      :    10.021237
      py      :    10.016870
      dz2     :     6.478926  d :    32.302888
      dxz     :     6.395875
      dyz     :     6.496161
      dx2y2   :     6.424273
      dxy     :     6.507653
      f0      :     2.423124  f :    18.332584
      f+1     :     2.734042
      f-1     :     3.100790
      f+2     :     2.401931
      f-2     :     2.303361
      f+3     :     2.346059
      f-3     :     3.023277
  2 O s       :     3.414986  s :     3.414986
      pz      :     1.654686  p :     4.709301
      px      :     1.462702
      py      :     1.591913
      dz2     :     0.016677  d :     0.083127
      dxz     :     0.010424
      dyz     :     0.007548
      dx2y2   :     0.015920
      dxy     :     0.032559
      f0      :     0.000571  f :     0.006070
      f+1     :     0.001039
      f-1     :     0.000606
      f+2     :     0.000483
      f-2     :     0.000655
      f+3     :     0.000661
      f-3     :     0.002055
  3 O s       :     3.415091  s :     3.415091
      pz      :     1.659572  p :     4.709348
      px      :     1.504593
      py      :     1.545183
      dz2     :     0.017566  d :     0.083142
      dxz     :     0.008251
      dyz     :     0.007662
      dx2y2   :     0.009942
      dxy     :     0.039720
      f0      :     0.000489  f :     0.006070
      f+1     :     0.000973
      f-1     :     0.000816
      f+2     :     0.000402
      f-2     :     0.000581
      f+3     :     0.001106
      f-3     :     0.001702
  4 O s       :     3.410531  s :     3.410531
      pz      :     1.501317  p :     4.704159
      px      :     1.652543
      py      :     1.550299
      dz2     :     0.014474  d :     0.083968
      dxz     :     0.010104
      dyz     :     0.038150
      dx2y2   :     0.011720
      dxy     :     0.009520
      f0      :     0.000601  f :     0.006211
      f+1     :     0.000554
      f-1     :     0.001934
      f+2     :     0.001300
      f-2     :     0.000837
      f+3     :     0.000510
      f-3     :     0.000475
  5 H s       :     0.656110  s :     0.656110
      pz      :     0.067675  p :     0.171895
      px      :     0.043984
      py      :     0.060235
  6 H s       :     0.657856  s :     0.657856
      pz      :     0.042537  p :     0.171630
      px      :     0.067522
      py      :     0.061571
  7 H s       :     0.656249  s :     0.656249
      pz      :     0.073562  p :     0.171978
      px      :     0.042915
      py      :     0.055501
  8 H s       :     0.657824  s :     0.657824
      pz      :     0.043280  p :     0.171636
      px      :     0.074154
      py      :     0.054202

SPIN
  0 O s       :     0.000597  s :     0.000597
      pz      :    -0.001404  p :    -0.005057
      px      :     0.000453
      py      :    -0.004107
      dz2     :    -0.000005  d :     0.003191
      dxz     :     0.000122
      dyz     :     0.002499
      dx2y2   :     0.000017
      dxy     :     0.000558
      f0      :    -0.000022  f :     0.000204
      f+1     :    -0.000002
      f-1     :     0.000133
      f+2     :     0.000029
      f-2     :     0.000044
      f+3     :     0.000023
      f-3     :    -0.000001
  1 Nps       :     0.017846  s :     0.017846
      pz      :     0.009656  p :     0.011247
      px      :     0.000053
      py      :     0.001538
      dz2     :     0.014308  d :     0.056516
      dxz     :     0.012258
      dyz     :     0.020376
      dx2y2   :    -0.007045
      dxy     :     0.016619
      f0      :     0.164500  f :     0.945036
      f+1     :     0.571208
      f-1     :     0.873483
      f+2     :     0.213499
      f-2     :    -0.022199
      f+3     :    -0.029536
      f-3     :    -0.825920
  2 O s       :    -0.001378  s :    -0.001378
      pz      :    -0.010569  p :    -0.011368
      px      :    -0.000720
      py      :    -0.000080
      dz2     :     0.000972  d :    -0.000979
      dxz     :     0.000082
      dyz     :    -0.000032
      dx2y2   :    -0.000138
      dxy     :    -0.001862
      f0      :     0.000006  f :    -0.000029
      f+1     :     0.000046
      f-1     :     0.000019
      f+2     :     0.000008
      f-2     :    -0.000004
      f+3     :    -0.000001
      f-3     :    -0.000103
  3 O s       :    -0.001383  s :    -0.001383
      pz      :    -0.010265  p :    -0.011430
      px      :    -0.000192
      py      :    -0.000973
      dz2     :     0.000881  d :    -0.000981
      dxz     :     0.000036
      dyz     :     0.000061
      dx2y2   :     0.000059
      dxy     :    -0.002019
      f0      :     0.000001  f :    -0.000030
      f+1     :     0.000038
      f-1     :     0.000025
      f+2     :     0.000009
      f-2     :     0.000000
      f+3     :    -0.000053
      f-3     :    -0.000051
  4 O s       :     0.000587  s :     0.000587
      pz      :    -0.002672  p :    -0.005055
      px      :     0.001110
      py      :    -0.003493
      dz2     :    -0.000288  d :     0.003181
      dxz     :     0.000195
      dyz     :     0.002504
      dx2y2   :    -0.000061
      dxy     :     0.000831
      f0      :     0.000003  f :     0.000204
      f+1     :    -0.000000
      f-1     :     0.000078
      f+2     :     0.000040
      f-2     :     0.000050
      f+3     :     0.000038
      f-3     :    -0.000004
  5 H s       :     0.000513  s :     0.000513
      pz      :    -0.000140  p :    -0.000134
      px      :     0.000136
      py      :    -0.000130
  6 H s       :    -0.000360  s :    -0.000360
      pz      :    -0.000479  p :    -0.000485
      px      :     0.000012
      py      :    -0.000019
  7 H s       :     0.000524  s :     0.000524
      pz      :    -0.000085  p :    -0.000136
      px      :     0.000098
      py      :    -0.000149
  8 H s       :    -0.000361  s :    -0.000361
      pz      :    -0.000501  p :    -0.000480
      px      :    -0.000019
      py      :     0.000040


                      *****************************
                      * MAYER POPULATION ANALYSIS *
                      *****************************

  NA   - Mulliken gross atomic population
  ZA   - Total nuclear charge
  QA   - Mulliken gross atomic charge
  VA   - Mayer's total valence
  BVA  - Mayer's bonded valence
  FA   - Mayer's free valence

  ATOM       NA         ZA         QA         VA         BVA        FA
  0 O      8.8497     8.0000    -0.8497     1.7230     1.2731     0.4500
  1 Np    90.8549    93.0000     2.1451     5.0738     1.6753     3.3984
  2 O      8.8520     8.0000    -0.8520     1.7313     1.2801     0.4512
  3 O      8.8518     8.0000    -0.8518     1.7309     1.2797     0.4512
  4 O      8.8496     8.0000    -0.8496     1.7223     1.2724     0.4499
  5 H      0.6843     1.0000     0.3157     0.9283     0.8783     0.0500
  6 H      0.6866     1.0000     0.3134     0.9290     0.8788     0.0503
  7 H      0.6845     1.0000     0.3155     0.9284     0.8784     0.0500
  8 H      0.6865     1.0000     0.3135     0.9290     0.8787     0.0503

  Mayer bond orders larger than 0.1
B(  0-O ,  1-Np) :   0.3878 B(  0-O ,  7-H ) :   0.8451 B(  1-Np,  2-O ) :   0.3959 
B(  1-Np,  3-O ) :   0.3956 B(  1-Np,  4-O ) :   0.3871 B(  2-O ,  8-H ) :   0.8456 
B(  3-O ,  6-H ) :   0.8456 B(  4-O ,  5-H ) :   0.8450 


----------------------------------
MP2 DERIVATIVE INTEGRAL GENERATION
----------------------------------


Input Wavefunction Amplitudes       ... /home/nikolayandreadi_2125/_scratch/MP2/NpOH4.mp2tbb.tmp.proc19
Input Correlated Electron Density   ... /home/nikolayandreadi_2125/_scratch/MP2/NpOH4.pmp2re
Input Energy Weighted Density       ... /home/nikolayandreadi_2125/_scratch/MP2/NpOH4.wmp2.tmp
Input SCF Electron Density          ... /home/nikolayandreadi_2125/_scratch/MP2/NpOH4.scfp.tmp

One-Electron Terms    ...
                        ... One-Electron Terms done
Prescreening matrices              ... done

Batch handling in the gradient evaluation:
Memory available                      ... 31500.0 MB
Memory per occupied orbital in Q2     ...   39.1 MB
Memory per occupied orbital in Q3     ...    0.1 MB
Total memory requirement per |i>      ...   39.2 MB
Max. Number of orbitals possible      ...    803
Number of orbitals treated per batch  ...     53
Number of batches to be done          ...      1
Batch   0: i=   38 ...    90

---------------------------------------
MP2 TOTAL ENERGY:   -29040.086822801 Eh
---------------------------------------

-----------------------------------
NORM OF THE MP2 GRADIENT:  0.000528
-----------------------------------

-------------------------   --------------------
FINAL SINGLE POINT ENERGY    -29040.086822801408
-------------------------   --------------------

                                *** OPTIMIZATION RUN DONE ***

                            ***************************************
                            *     ORCA property calculations      *
                            ***************************************

                                    ---------------------
                                    Active property flags
                                    ---------------------
   (+) Dipole Moment


------------------------------------------------------------------------------
                       ORCA ELECTRIC PROPERTIES CALCULATION
------------------------------------------------------------------------------

Dipole Moment Calculation                       ... on
Quadrupole Moment Calculation                   ... off
Polarizability Calculation                      ... off
GBWName                                         ... /home/nikolayandreadi_2125/_scratch/MP2/NpOH4.gbw
Electron density file                           ... /home/nikolayandreadi_2125/_scratch/MP2/NpOH4.scfp.tmp
The origin for moment calculation is the CENTER OF MASS  = ( 2.624878, -2.594834  1.227531)

-------------
DIPOLE MOMENT
-------------
                                X             Y             Z
Electronic contribution:     -0.01008       0.11869       0.02466
Nuclear contribution   :      0.00454      -0.12031      -0.02052
                        -----------------------------------------
Total Dipole Moment    :     -0.00553      -0.00162       0.00414
                        -----------------------------------------
Magnitude (a.u.)       :      0.00710
Magnitude (Debye)      :      0.01804


                         *** MP2 UNRELAXED DENSITY ***

------------------------------------------------------------------------------
                       ORCA ELECTRIC PROPERTIES CALCULATION
------------------------------------------------------------------------------

Dipole Moment Calculation                       ... on
Quadrupole Moment Calculation                   ... off
Polarizability Calculation                      ... off
GBWName                                         ... /home/nikolayandreadi_2125/_scratch/MP2/NpOH4.gbw
Electron density file                           ... /home/nikolayandreadi_2125/_scratch/MP2/NpOH4.pmp2ur
The origin for moment calculation is the CENTER OF MASS  = ( 2.624878, -2.594834  1.227531)

-------------
DIPOLE MOMENT
-------------
                                X             Y             Z
Electronic contribution:     -0.01000       0.11731       0.02448
Nuclear contribution   :      0.00454      -0.12031      -0.02052
                        -----------------------------------------
Total Dipole Moment    :     -0.00545      -0.00299       0.00396
                        -----------------------------------------
Magnitude (a.u.)       :      0.00738
Magnitude (Debye)      :      0.01875


                           *** MP2 RELAXED DENSITY ***

------------------------------------------------------------------------------
                       ORCA ELECTRIC PROPERTIES CALCULATION
------------------------------------------------------------------------------

Dipole Moment Calculation                       ... on
Quadrupole Moment Calculation                   ... off
Polarizability Calculation                      ... off
GBWName                                         ... /home/nikolayandreadi_2125/_scratch/MP2/NpOH4.gbw
Electron density file                           ... /home/nikolayandreadi_2125/_scratch/MP2/NpOH4.pmp2re
The origin for moment calculation is the CENTER OF MASS  = ( 2.624878, -2.594834  1.227531)

-------------
DIPOLE MOMENT
-------------
                                X             Y             Z
Electronic contribution:     -0.00770       0.13278       0.02207
Nuclear contribution   :      0.00454      -0.12031      -0.02052
                        -----------------------------------------
Total Dipole Moment    :     -0.00316       0.01247       0.00155
                        -----------------------------------------
Magnitude (a.u.)       :      0.01296
Magnitude (Debye)      :      0.03295


Timings for individual modules:

Sum of individual times         ...    30007.366 sec (= 500.123 min)
GTO integral calculation        ...       50.326 sec (=   0.839 min)   0.2 %
Relativistic integrals          ...       32.257 sec (=   0.538 min)   0.1 %
SCF iterations                  ...     5449.932 sec (=  90.832 min)  18.2 %
MP2 module                      ...    24473.726 sec (= 407.895 min)  81.6 %
Geometry relaxation             ...        1.126 sec (=   0.019 min)   0.0 %
                             ****ORCA TERMINATED NORMALLY****
TOTAL RUN TIME: 0 days 8 hours 20 minutes 17 seconds 189 msec
