
                                 *****************
                                 * O   R   C   A *
                                 *****************

           --- An Ab Initio, DFT and Semiempirical electronic structure package ---

                  #######################################################
                  #                        -***-                        #
                  #  Department of molecular theory and spectroscopy    #
                  #              Directorship: Frank Neese              #
                  # Max Planck Institute for Chemical Energy Conversion #
                  #                  D-45470 Muelheim/Ruhr              #
                  #                       Germany                       #
                  #                                                     #
                  #                  All rights reserved                #
                  #                        -***-                        #
                  #######################################################


                         Program Version 4.0.1.2 - RELEASE -


 With contributions from (in alphabetic order):
   Daniel Aravena         : Magnetic Properties
   Michael Atanasov       : Ab Initio Ligand Field Theory
   Ute Becker             : Parallelization
   Martin Brehm           : Molecular dynamics
   Dmytro Bykov           : SCF Hessian
   Vijay G. Chilkuri      : MRCI spin determinant printing
   Dipayan Datta          : RHF DLPNO-CCSD density
   Achintya Kumar Dutta   : EOM-CC, STEOM-CC
   Dmitry Ganyushin       : Spin-Orbit,Spin-Spin,Magnetic field MRCI
   Yang Guo               : DLPNO-NEVPT2, CIM, IAO-localization
   Andreas Hansen         : Spin unrestricted coupled pair/coupled cluster methods
   Lee Huntington         : MR-EOM, pCC
   Robert Izsak           : Overlap fitted RIJCOSX, COSX-SCS-MP3, EOM
   Christian Kollmar      : KDIIS, OOCD, Brueckner-CCSD(T), CCSD density
   Simone Kossmann        : Meta GGA functionals, TD-DFT gradient, OOMP2, MP2 Hessian
   Martin Krupicka        : AUTO-CI
   Dagmar Lenk            : GEPOL surface
   Dimitrios Liakos       : Extrapolation schemes; parallel MDCI
   Dimitrios Manganas     : ROCIS; embedding schemes
   Dimitrios Pantazis     : SARC Basis sets
   Taras Petrenko         : DFT Hessian,TD-DFT gradient, ASA, ECA, R-Raman, ABS, FL, XAS/XES, NRVS
   Peter Pinski           : DLPNO-MP2
   Christoph Reimann      : Effective Core Potentials
   Marius Retegan         : Local ZFS, SOC
   Christoph Riplinger    : Optimizer, TS searches, QM/MM, DLPNO-CCSD(T), (RO)-DLPNO pert. Triples
   Tobias Risthaus        : Range-separated hybrids, TD-DFT gradient, RPA, STAB
   Michael Roemelt        : Restricted open shell CIS
   Masaaki Saitow         : Open-shell DLPNO
   Barbara Sandhoefer     : DKH picture change effects
   Kantharuban Sivalingam : CASSCF convergence, NEVPT2, FIC-MRCI
   Georgi Stoychev        : AutoAux
   Boris Wezisla          : Elementary symmetry handling
   Frank Wennmohs         : Technical directorship


 We gratefully acknowledge several colleagues who have allowed us to
 interface, adapt or use parts of their codes:
   Stefan Grimme, W. Hujo, H. Kruse,             : VdW corrections, initial TS optimization,
                  C. Bannwarth                     DFT functionals, gCP, sTDA/sTD-DF
   Ed Valeev                                     : LibInt (2-el integral package), F12 methods
   Garnet Chan, S. Sharma, J. Yang, R. Olivares  : DMRG
   Ulf Ekstrom                                   : XCFun DFT Library
   Mihaly Kallay                                 : mrcc  (arbitrary order and MRCC methods)
   Andreas Klamt, Michael Diedenhofen            : otool_cosmo (COSMO solvation model)
   Jiri Pittner, Ondrej Demel                    : Mk-CCSD
   Frank Weinhold                                : gennbo (NPA and NBO analysis)
   Christopher J. Cramer and Donald G. Truhlar   : smd solvation model


 Your calculation uses the libint2 library for the computation of 2-el integrals
 For citations please refer to: http://libint.valeyev.net

 This ORCA versions uses:
   CBLAS   interface :  Fast vector & matrix operations
   LAPACKE interface :  Fast linear algebra routines
   SCALAPACK package :  Parallel linear algebra routines


Your calculation utilizes the basis: DKH-def2-TZVP
   Exponents from def2-TZVP [F. Weigend and R. Ahlrichs, Phys. Chem. Chem. Phys. 7, 3297 (2005)],
   recontracted for DKH2 by D. A. Pantazis.

Your calculation utilizes the auxiliary basis: SARC/J 
   decontracted def2/J up to Kr:
   F. Weigend, Phys. Chem. Chem. Phys. 8, 1057 (2006)
   and SARC auxiliary basis sets beyond Kr:
   D. A. Pantazis and F. Neese, J. Chem. Theory Comput. 5, 2229 (2009).
   D. A. Pantazis, X. Y. Chen, C. R. Landis and F. Neese, J. Chem. Theory Comput. 4, 908 (2008).
   D. A. Pantazis and F. Neese, Theor. Chem. Acc. 131, 1292 (2012).
   D. A. Pantazis and F. Neese, J. Chem. Theory Comput. 7, 677 (2011).

================================================================================
                                        WARNINGS
                       Please study these warnings very carefully!
================================================================================

Warning: TCutStore was < 0. Adjusted to Thresh (uncritical)

WARNING: your system is open-shell and RHF/RKS was chosen
  ===> : WILL SWITCH to UHF/UKS


WARNING: In scalar relativistic gradient/hessian runs we need the one-center approximation
  ===> : %rel OneCenter is turned on

WARNING: The frozen-core approximation for MP2-gradient calculations is turned on by default.

WARNING: Geometry Optimization
  ===> : Switching off AutoStart
         For restart on a previous wavefunction, please use MOREAD

WARNING: Post HF methods need fully converged wavefunctions
  ===> : Setting SCFConvForced true
         You can overwrite this default with %scf ConvForced false 


INFO   : the flag for use of LIBINT has been found!

================================================================================
                                       INPUT FILE
================================================================================
NAME = /home/nikolayandreadi_2125/_scratch/MP2/NpOH6.inp
|  1> !Opt MP2 DKH-def2-TZVP DKH SARC/J SlowConv
|  2> 
|  3> %pal
|  4> nproc 20
|  5> end
|  6> 
|  7> %maxcore 31500
|  8> 
|  9> %basis
| 10> newgto Np "SARC-DKH-TZVP" end
| 11> end
| 12> 
| 13> %scf
| 14> MaxIter 5000
| 15> end
| 16> 
| 17> %method
| 18> Z_MaxIter 5000
| 19> end
| 20> 
| 21> * xyz 0 2
| 22>   O      7.732883    0.384846    2.243618
| 23>   Np     5.707769    0.549467    2.726433
| 24>   O      3.848442    0.296366    3.073165
| 25>   O      5.277449    0.534940    0.844333
| 26>   O      5.600546    2.440215    2.816881
| 27>   O      5.738764   -1.541516    2.860644
| 28>   O      6.236884    0.651649    4.745809
| 29>   H      4.907682    0.526681   -0.105505
| 30>   H      2.916730    0.149640    3.258356
| 31>   H      8.317415    0.699284    2.992625
| 32>   H      6.657490   -1.779797    2.537978
| 33>   H      5.565090    3.388302    2.775284
| 34>   H      6.368976   -0.199476    5.188580
| 35> **                         ****END OF INPUT****
================================================================================

                       *****************************
                       * Geometry Optimization Run *
                       *****************************

Geometry optimization settings:
Update method            Update   .... BFGS
Choice of coordinates    CoordSys .... Redundant Internals
Initial Hessian          InHess   .... Almoef's Model

Convergence Tolerances:
Energy Change            TolE     ....  5.0000e-06 Eh
Max. Gradient            TolMAXG  ....  3.0000e-04 Eh/bohr
RMS Gradient             TolRMSG  ....  1.0000e-04 Eh/bohr
Max. Displacement        TolMAXD  ....  4.0000e-03 bohr
RMS Displacement         TolRMSD  ....  2.0000e-03 bohr

------------------------------------------------------------------------------
                        ORCA OPTIMIZATION COORDINATE SETUP
------------------------------------------------------------------------------

The optimization will be done in new redundant internal coordinates
Making redundant internal coordinates   ...  (new redundants) done
Evaluating the initial hessian          ...  (Almloef) done
Evaluating the coordinates              ...  done
Calculating the B-matrix                .... done
Calculating the G-matrix                .... done
Diagonalizing the G-matrix              .... done
The first mode is                       ....   24
The number of degrees of freedom        ....   33

    -----------------------------------------------------------------
                    Redundant Internal Coordinates


    -----------------------------------------------------------------
         Definition                    Initial Value    Approx d2E/dq
    -----------------------------------------------------------------
      1. B(Np  1,O   0)                  2.0884         0.144598   
      2. B(O   2,Np  1)                  1.9082         0.280253   
      3. B(O   3,Np  1)                  1.9307         0.258037   
      4. B(O   4,Np  1)                  1.8959         0.293202   
      5. B(O   5,Np  1)                  2.0955         0.140853   
      6. B(O   6,Np  1)                  2.0900         0.143712   
      7. B(H   7,O   3)                  1.0193         0.418163   
      8. B(H   8,O   2)                  0.9612         0.517663   
      9. B(H   9,O   0)                  1.0008         0.447615   
     10. B(H  10,O   5)                  1.0025         0.444843   
     11. B(H  11,O   4)                  0.9497         0.540084   
     12. B(H  12,O   6)                  0.9685         0.504051   
     13. A(Np  1,O   0,H   9)          111.6286         0.301381   
     14. A(O   3,Np  1,O   5)           93.3378         0.323956   
     15. A(O   2,Np  1,O   5)           82.5550         0.328389   
     16. A(O   4,Np  1,O   5)          173.1604         0.330849   
     17. A(O   3,Np  1,O   4)           92.3729         0.366366   
     18. A(O   2,Np  1,O   3)           87.6480         0.363544   
     19. A(O   2,Np  1,O   4)           93.9278         0.371599   
     20. A(O   0,Np  1,O   4)           98.3073         0.332290   
     21. A(O   0,Np  1,O   3)           89.4366         0.325355   
     22. A(O   0,Np  1,O   6)           88.9536         0.296030   
     23. A(O   2,Np  1,O   6)           94.4504         0.329481   
     24. A(O   4,Np  1,O   6)           85.3809         0.331952   
     25. A(O   5,Np  1,O   6)           89.0350         0.294804   
     26. A(O   0,Np  1,O   5)           85.5153         0.295090   
     27. A(O   0,Np  1,O   2)          167.5292         0.329815   
     28. L(Np  1,O   2,H   8,O   5, 2) 179.2581         0.343949   
     29. L(Np  1,O   2,H   8,O   5, 1) 178.7967         0.343949   
     30. A(Np  1,O   3,H   7)          171.6081         0.327426   
     31. A(Np  1,O   4,H  11)          174.6403         0.349053   
     32. A(Np  1,O   5,H  10)          103.3042         0.299827   
     33. A(Np  1,O   6,H  12)          115.6770         0.306863   
     34. D(O   3,Np  1,O   0,H   9)    158.6478         0.001839   
     35. D(O   4,Np  1,O   0,H   9)     66.3319         0.001839   
     36. D(O   2,Np  1,O   0,H   9)   -124.9156         0.001839   
     37. D(O   6,Np  1,O   0,H   9)    -18.8458         0.001839   
     38. D(O   5,Np  1,O   0,H   9)   -107.9597         0.001839   
     39. D(H   7,O   3,Np  1,O   0)    175.2240         0.002585   
     40. D(H   7,O   3,Np  1,O   2)      7.3520         0.002585   
     41. D(H   7,O   3,Np  1,O   5)     89.7495         0.002585   
     42. D(H   7,O   3,Np  1,O   4)    -86.4847         0.002585   
     43. D(H  11,O   4,Np  1,O   6)    153.2538         0.002907   
     44. D(H  11,O   4,Np  1,O   5)   -171.3809         0.002907   
     45. D(H  11,O   4,Np  1,O   3)    -24.7859         0.002907   
     46. D(H  11,O   4,Np  1,O   2)   -112.5894         0.002907   
     47. D(H  11,O   4,Np  1,O   0)     64.9909         0.002907   
     48. D(H  10,O   5,Np  1,O   0)     -6.5458         0.001822   
     49. D(H  10,O   5,Np  1,O   6)    -95.5717         0.001822   
     50. D(H  10,O   5,Np  1,O   4)   -130.8108         0.001822   
     51. D(H  10,O   5,Np  1,O   3)     82.6259         0.001822   
     52. D(H  10,O   5,Np  1,O   2)    169.8128         0.001822   
     53. D(H  12,O   6,O   3,H   7)    100.5549         0.001500   
     54. D(H  12,O   6,Np  1,O   5)      1.1313         0.001835   
     55. D(H  12,O   6,Np  1,O   4)    177.1783         0.001835   
     56. D(H  12,O   6,Np  1,O   2)     83.5868         0.001835   
     57. D(H  12,O   6,Np  1,O   0)    -84.4003         0.001835   
    -----------------------------------------------------------------

Number of atoms                         .... 13
Number of degrees of freedom            .... 57

         *************************************************************
         *                GEOMETRY OPTIMIZATION CYCLE   1            *
         *************************************************************
---------------------------------
CARTESIAN COORDINATES (ANGSTROEM)
---------------------------------
  O      7.732883    0.384846    2.243618
  Np     5.707769    0.549467    2.726433
  O      3.848442    0.296366    3.073165
  O      5.277449    0.534940    0.844333
  O      5.600546    2.440215    2.816881
  O      5.738764   -1.541516    2.860644
  O      6.236884    0.651649    4.745809
  H      4.907682    0.526681   -0.105505
  H      2.916730    0.149640    3.258356
  H      8.317415    0.699284    2.992625
  H      6.657490   -1.779797    2.537978
  H      5.565090    3.388302    2.775284
  H      6.368976   -0.199476    5.188580

----------------------------
CARTESIAN COORDINATES (A.U.)
----------------------------
  NO LB      ZA    FRAG     MASS         X           Y           Z
   0 O     8.0000    0    15.999   14.613031    0.727254    4.239824
   1 Np   93.0000    0   237.048   10.786120    1.038342    5.152212
   2 O     8.0000    0    15.999    7.272501    0.560051    5.807440
   3 O     8.0000    0    15.999    9.972933    1.010890    1.595558
   4 O     8.0000    0    15.999   10.583498    4.611338    5.323134
   5 O     8.0000    0    15.999   10.844692   -2.913043    5.405834
   6 O     8.0000    0    15.999   11.786003    1.231438    8.968279
   7 H     1.0000    0     1.008    9.274175    0.995283   -0.199376
   8 H     1.0000    0     1.008    5.511821    0.282779    6.157400
   9 H     1.0000    0     1.008   15.717636    1.321455    5.655242
  10 H     1.0000    0     1.008   12.580833   -3.363329    4.796083
  11 H     1.0000    0     1.008   10.516496    6.402963    5.244527
  12 H     1.0000    0     1.008   12.035620   -0.376955    9.804995

--------------------------------
INTERNAL COORDINATES (ANGSTROEM)
--------------------------------
 O      0   0   0     0.000000000000     0.00000000     0.00000000
 Np     1   0   0     2.088371880404     0.00000000     0.00000000
 O      2   1   0     1.908240050139   167.52920047     0.00000000
 O      2   1   3     1.930721819975    89.43655594   283.56338632
 O      2   1   4     1.895944517104    98.30725294   267.68413169
 O      2   1   4     2.095515017564    85.51529727    93.39249631
 O      2   1   4     2.090043844929    88.95357881   182.50646522
 H      4   2   1     1.019307643263   171.60812501   175.22401396
 H      3   2   5     0.961203140081   178.66093369   212.15112361
 H      1   2   5     1.000779896339   111.62855852    66.33188960
 H      6   2   1     1.002471269211   103.30415062   353.45418050
 H      5   2   1     0.949661201647   174.64028354    64.99090972
 H      7   2   1     0.968456617784   115.67696621   275.59972842

---------------------------
INTERNAL COORDINATES (A.U.)
---------------------------
 O      0   0   0     0.000000000000     0.00000000     0.00000000
 Np     1   0   0     3.946450919746     0.00000000     0.00000000
 O      2   1   0     3.606051092543   167.52920047     0.00000000
 O      2   1   3     3.648535480539    89.43655594   283.56338632
 O      2   1   4     3.582815902436    98.30725294   267.68413169
 O      2   1   4     3.959949492715    85.51529727    93.39249631
 O      2   1   4     3.949610474803    88.95357881   182.50646522
 H      4   2   1     1.926212291979   171.60812501   175.22401396
 H      3   2   5     1.816410693818   178.66093369   212.15112361
 H      1   2   5     1.891199924415   111.62855852    66.33188960
 H      6   2   1     1.894396155933   103.30415062   353.45418050
 H      5   2   1     1.794599591124   174.64028354    64.99090972
 H      7   2   1     1.830117780196   115.67696621   275.59972842

---------------------
BASIS SET INFORMATION
---------------------
There are 3 groups of distinct atoms

 Group   1 Type O   : 11s6p2d1f contracted to 6s3p2d1f pattern {611111/411/11/1}
 Group   2 Type Np  : 29s20p16d12f contracted to 21s13p10d7f pattern {911111111111111111111/8111111111111/7111111111/6111111}
 Group   3 Type H   : 5s1p contracted to 3s1p pattern {311/1}

Atom   0O    basis set group =>   1
Atom   1Np   basis set group =>   2
Atom   2O    basis set group =>   1
Atom   3O    basis set group =>   1
Atom   4O    basis set group =>   1
Atom   5O    basis set group =>   1
Atom   6O    basis set group =>   1
Atom   7H    basis set group =>   3
Atom   8H    basis set group =>   3
Atom   9H    basis set group =>   3
Atom  10H    basis set group =>   3
Atom  11H    basis set group =>   3
Atom  12H    basis set group =>   3

INFORMATION: There is an auxiliary basis set but the global RI flag is NOT set

-------------------------------
AUXILIARY BASIS SET INFORMATION
-------------------------------
There are 3 groups of distinct atoms

 Group   1 Type O   : 12s5p4d2f1g contracted to 12s5p4d2f1g pattern {111111111111/11111/1111/11/1}
 Group   2 Type Np  : 33s10p8d6f4g2h1i contracted to 33s10p8d6f4g2h1i pattern {111111111111111111111111111111111/1111111111/11111111/111111/1111/11/1}
 Group   3 Type H   : 5s2p1d contracted to 5s2p1d pattern {11111/11/1}

Atom   0O    basis set group =>   1
Atom   1Np   basis set group =>   2
Atom   2O    basis set group =>   1
Atom   3O    basis set group =>   1
Atom   4O    basis set group =>   1
Atom   5O    basis set group =>   1
Atom   6O    basis set group =>   1
Atom   7H    basis set group =>   3
Atom   8H    basis set group =>   3
Atom   9H    basis set group =>   3
Atom  10H    basis set group =>   3
Atom  11H    basis set group =>   3
Atom  12H    basis set group =>   3


           ************************************************************
           *        Program running with 20 parallel MPI-processes    *
           *              working on a common directory               *
           ************************************************************
------------------------------------------------------------------------------
                           ORCA GTO INTEGRAL CALCULATION
------------------------------------------------------------------------------

                         BASIS SET STATISTICS AND STARTUP INFO

 # of primitive gaussian shells          ...  233
 # of primitive gaussian functions       ...  577
 # of contracted shells                  ...  147
 # of contracted basis functions         ...  387
 Highest angular momentum                ...    3
 Maximum contraction depth               ...    9
 Integral package used                   ... LIBINT
 Integral threshhold            Thresh   ...  2.500e-11
 Primitive cut-off              TCut     ...  2.500e-12


------------------------------ INTEGRAL EVALUATION ----------------------------


 * One electron integrals 
 Pre-screening matrix                    ... done
 Shell pair data                         ... done (   0.002 sec)

------------------------------------------------------------------------------
                          ORCA RELATIVISTIC HAMILTONIAN
------------------------------------------------------------------------------

Relativistic Method            ... DKH
Order of DKH treatment         ...   2
Treatment of potential         ... V(e,N)
Eps parameter for DKH          ...   0.00000000010000
Nucleus model                  ... Point Nucleus
Speed of light used            ... 137.03598950000000


            ************************************************
            *        DOUGLAS-KROLL-HESS HAMILTONIAN        *
            *   Programmed by FN according to literature   *
            *        procedures. Special thanks to         *
            *       B.A. Hess, M. Reiher and A. Wolf       *
            *     University Erlangen-Nuernberg/Bonn       *
            ************************************************

Uncontracting the basis (first version)        ... done
Number of contracted basis functions           ...  387
Number of uncontracted basis functions         ...  577
Initializing the DKH file                      ... done
One center approximation for DKH is active
Finding unique atoms                      ... 3 atom types
 ATOMIC NUMBER   8
          ... doing integrals          ... Computing the DKH transformation
          ... Transforming V and pVp to p**2 space
          ... First transformation of V and pVp
          ... Second transformation of Veff
          ... Adding kinetic energy
          ... Back transformation of Veff to r-space
          ... Recontracting the H-matrix
          ... Computing the DKH correction to the H-matrix
          ... adding submatrics to 6 actual atoms
 ATOMIC NUMBER  93
          ... doing integrals          ... Computing the DKH transformation
          ... Transforming V and pVp to p**2 space
          ... First transformation of V and pVp
          ... Second transformation of Veff
          ... Adding kinetic energy
          ... Back transformation of Veff to r-space
          ... Recontracting the H-matrix
          ... Computing the DKH correction to the H-matrix
          ... adding submatrics to 1 actual atoms
 ATOMIC NUMBER   1
          ... doing integrals          ... Computing the DKH transformation
          ... Transforming V and pVp to p**2 space
          ... First transformation of V and pVp
          ... Second transformation of Veff
          ... Adding kinetic energy
          ... Back transformation of Veff to r-space
          ... Recontracting the H-matrix
          ... Computing the DKH correction to the H-matrix
          ... adding submatrics to 6 actual atoms
Storing DKH matrices                           ... done
Getting S**(-1/2)                              ... done
Reading the original H-matrix                  ... done
Adding DKH correction to the H-matrix          ... done
Storing the new modified H-matrix              ... done


           ************************************************************
           *        Program running with 20 parallel MPI-processes    *
           *              working on a common directory               *
           ************************************************************
-------------------------------------------------------------------------------
                                 ORCA SCF
-------------------------------------------------------------------------------

------------
SCF SETTINGS
------------
Hamiltonian:
 Ab initio Hamiltonian  Method          .... Hartree-Fock(GTOs)

Relativistic Settings:
 Scalar relativistic method             .... Douglas-Kroll-Hess
 Order of DKH procedure    Order        ....    2
 Mode of DKH-treatment                  .... V=V(e,N)
 Speed of light used       Velit        ....       137.035989
 Cutoff-constant           Eps          ....            1e-10 


General Settings:
 Integral files         IntName         .... /home/nikolayandreadi_2125/_scratch/MP2/NpOH6
 Hartree-Fock type      HFTyp           .... UHF
 Total Charge           Charge          ....    0
 Multiplicity           Mult            ....    2
 Number of Electrons    NEL             ....  147
 Basis Dimension        Dim             ....  387
 Nuclear Repulsion      ENuc            ....   1523.5244117420 Eh

Convergence Acceleration:
 DIIS                   CNVDIIS         .... on
   Start iteration      DIISMaxIt       ....     0
   Startup error        DIISStart       ....  0.200000
   # of expansion vecs  DIISMaxEq       ....     5
   Bias factor          DIISBfac        ....   1.050
   Max. coefficient     DIISMaxC        ....  10.000
 Newton-Raphson         CNVNR           .... off
 SOSCF                  CNVSOSCF        .... off
 Level Shifting         CNVShift        .... on
   Level shift para.    LevelShift      ....    0.2500
   Turn off err/grad.   ShiftErr        ....    0.0000
 Zerner damping         CNVZerner       .... off
 Static damping         CNVDamp         .... on
   Fraction old density DampFac         ....    0.8500
   Max. Damping (<1)    DampMax         ....    0.9800
   Min. Damping (>=0)   DampMin         ....    0.0000
   Turn off err/grad.   DampErr         ....    0.0300
 Fernandez-Rico         CNVRico         .... off

SCF Procedure:
 Maximum # iterations   MaxIter         ....  5000
 SCF integral mode      SCFMode         .... Direct
   Integral package                     .... LIBINT
 Reset frequeny         DirectResetFreq ....    20
 Integral Threshold     Thresh          ....  2.500e-11 Eh
 Primitive CutOff       TCut            ....  2.500e-12 Eh

Convergence Tolerance:
 Convergence Check Mode ConvCheckMode   .... Total+1el-Energy
 Convergence forced     ConvForced      .... 1
 Energy Change          TolE            ....  1.000e-08 Eh
 1-El. energy change                    ....  1.000e-05 Eh
 DIIS Error             TolErr          ....  5.000e-07


Diagonalization of the overlap matrix:
Smallest eigenvalue                        ... 3.007e-04
Time for diagonalization                   ...    0.031 sec
Threshold for overlap eigenvalues          ... 1.000e-08
Number of eigenvalues below threshold      ... 0
Time for construction of square roots      ...    0.096 sec
Total time needed                          ...    0.128 sec

-------------------
DFT GRID GENERATION
-------------------

General Integration Accuracy     IntAcc      ...  4.340
Radial Grid Type                 RadialGrid  ... Gauss-Chebyshev
Angular Grid (max. acc.)         AngularGrid ... Lebedev-110
Angular grid pruning method      GridPruning ... 3 (G Style)
Weight generation scheme         WeightScheme... Becke
Basis function cutoff            BFCut       ...    1.0000e-11
Integration weight cutoff        WCut        ...    1.0000e-14
Grids for H and He will be reduced by one unit

# of grid points (after initial pruning)     ...  19004 (   0.0 sec)
# of grid points (after weights+screening)   ...  18033 (   0.0 sec)
nearest neighbour list constructed           ...    0.0 sec
Grid point re-assignment to atoms done       ...    0.0 sec
Grid point division into batches done        ...    0.0 sec
Reduced shell lists constructed in    0.0 sec

Total number of grid points                  ...    18033
Total number of batches                      ...      286
Average number of points per batch           ...       63
Average number of grid points per atom       ...     1387
Average number of shells per batch           ...    72.25 (49.15%)
Average number of basis functions per batch  ...   196.00 (50.65%)
Average number of large shells per batch     ...    56.88 (78.72%)
Average number of large basis fcns per batch ...   151.88 (77.49%)
Maximum spatial batch extension              ...  19.23, 13.89, 20.94 au
Average spatial batch extension              ...   0.22,  0.19,  0.22 au

Time for grid setup =    0.118 sec

------------------------------
INITIAL GUESS: MODEL POTENTIAL
------------------------------
Loading DKH relativistic densities                 ... done
Calculating cut-offs                               ... done
Setting up the integral package                    ... done
Initializing the effective Hamiltonian             ... done
Starting the Coulomb interaction                   ... done (   0.0 sec)
Reading the grid                                   ... done
Mapping shells                                     ... done
Starting the XC term evaluation                    ... done (   0.0 sec)
Transforming the Hamiltonian                       ... done (   0.0 sec)
Diagonalizing the Hamiltonian                      ... done (   0.0 sec)
Back transforming the eigenvectors                 ... done (   0.0 sec)
Now organizing SCF variables                       ... done
                      ------------------
                      INITIAL GUESS DONE (   0.3 sec)
                      ------------------
--------------
SCF ITERATIONS
--------------
ITER       Energy         Delta-E        Max-DP      RMS-DP      [F,P]     Damp
               ***  Starting incremental Fock matrix formation  ***
  0 -29187.9862981181   0.000000000000 0.10082847  0.00071299  8.2953650 0.8500
  1 -29188.2802258708  -0.293927752646 0.06664599  0.00053201  7.0570433 0.8500
                               ***Turning on DIIS***
  2 -29188.4514757343  -0.171249863532 0.04585040  0.00037204  6.0034074 0.8500
  3 -29182.3804226728   6.071053061474 0.03699995  0.00026416  5.1069403 0.8500
  4 -29186.0204890232  -3.640066350352 0.03946744  0.00026154  4.3430873 0.8500
  5 -29189.3400370052  -3.319547982028 0.03838176  0.00025339  3.6925096 0.8500
  6 -29189.7516644307  -0.411627425507 0.03325861  0.00022492  3.1390394 0.8500
  7 -29190.4756575879  -0.723993157135 0.02831271  0.00019746  2.6683874 0.8500
  8 -29189.0016734041   1.473984183776 0.02249165  0.00015872  2.2683197 0.8500
  9 -29188.5314101120   0.470263292031 0.01870133  0.00013165  1.9282054 0.8500
 10 -29188.8615921067  -0.330181994650 0.01630533  0.00011425  1.6390807 0.8500
 11 -29189.1985311385  -0.336939031793 0.01425225  0.00009995  1.3933160 0.8500
 12 -29189.3203300970  -0.121798958553 0.01225828  0.00008625  1.1844070 0.8500
 13 -29189.1917359699   0.128594127185 0.01033313  0.00007279  1.0068222 0.8500
 14 -29189.0886320904   0.103103879490 0.00872467  0.00006135  0.8558601 0.8500
 15 -29189.0963678770  -0.007735786588 0.00746142  0.00005232  0.7275312 0.8500
 16 -29189.1441155181  -0.047747641125 0.00642203  0.00004495  0.6184446 0.8500
 17 -29189.1686413643  -0.024525846267 0.00551277  0.00003856  0.5257155 0.8500
 18 -29189.1605395895   0.008101774809 0.00470749  0.00003292  0.4468904 0.8500
 19 -29189.1475666917   0.012972897825 0.00401670  0.00002808  0.3798838 0.8500
               *** Restarting incremental Fock matrix formation ***
                                   *** Resetting DIIS ***
 20 -29189.1591276109  -0.011560919174 0.00290562  0.00002062  0.3229238 0.8500
 21 -29189.1179590227   0.041168588148 0.00266139  0.00001821  0.2746979 0.8500
 22 -29189.1470612374  -0.029102214670 0.00251804  0.00001708  0.2336137 0.8500
 23 -29189.1916867021  -0.044625464732 0.00226915  0.00001562  0.1986191 0.8500
 24 -29189.1976276460  -0.005940943811 0.00196534  0.00001382  0.1688464 0.8500
 25 -29189.1988679686  -0.001240322643 0.00167435  0.00001205  0.1435290 0.8500
 26 -29189.1773929939   0.021474974666 0.00141926  0.00001047  0.1220086 0.8500
 27 -29189.1647314902   0.012661503722 0.00121701  0.00000919  0.1037145 0.8500
 28 -29189.1666078472  -0.001876356975 0.00105807  0.00000817  0.0881631 0.8500
 29 -29189.1716452210  -0.005037373820 0.00092332  0.00000733  0.0749436 0.8500
 30 -29189.1741628828  -0.002517661778 0.00080368  0.00000660  0.0637063 0.8500
 31 -29189.1726109742   0.001551908612 0.00069690  0.00000597  0.0541540 0.8500
 32 -29189.1706777486   0.001933225565 0.00060500  0.00000544  0.0460339 0.8500
 33 -29189.1706242050   0.000053543605 0.00052782  0.00000499  0.0391313 0.8500
 34 -29189.1718143601  -0.001190155112 0.00046250  0.00000460  0.0332637 0.8500
 35 -29189.1730228746  -0.001208514521 0.00270765  0.00002846  0.0282759 0.0000
 36 -29189.1993037204  -0.026280845774 0.00058341  0.00000592  0.0003504 0.0000
 37 -29189.1937879562   0.005515764246 0.00076397  0.00000860  0.0003381 0.0000
 38 -29189.1804548367   0.013333119499 0.00118007  0.00001169  0.0003196 0.0000
 39 -29189.1821645052  -0.001709668566 0.00067939  0.00000840  0.0002836 0.0000
               *** Restarting incremental Fock matrix formation ***
                                   *** Resetting DIIS ***
 40 -29189.1994030561  -0.017238550827 0.00014559  0.00000195  0.0002638 0.0000
 41 -29189.1995277687  -0.000124712657 0.00015800  0.00000188  0.0002603 0.0000
 42 -29189.1939088879   0.005618880838 0.00038421  0.00000399  0.0002548 0.0000
 43 -29189.1912158070   0.002693080914 0.00039453  0.00000436  0.0002317 0.0000
 44 -29189.1791280830   0.012087723982 0.00086617  0.00000944  0.0002069 0.0000
 45 -29189.1917621553  -0.012634072293 0.00012952  0.00000110  0.0001719 0.0000
 46 -29189.1846661814   0.007095973851 0.00053709  0.00000611  0.0001491 0.0000
 47 -29189.1886007434  -0.003934561941 0.00017708  0.00000170  0.0001251 0.0000
 48 -29189.1931041898  -0.004503446427 0.00019701  0.00000146  0.0000966 0.0000
 49 -29189.1957691714  -0.002664981635 0.00015580  0.00000120  0.0000784 0.0000
 50 -29189.1994272201  -0.003658048710 0.00016066  0.00000171  0.0000636 0.0000
 51 -29189.1999204245  -0.000493204392 0.00011162  0.00000120  0.0000515 0.0000
 52 -29189.2020855338  -0.002165109268 0.00016181  0.00000182  0.0000421 0.0000
 53 -29189.2012242609   0.000861272907 0.00006714  0.00000077  0.0000328 0.0000
 54 -29189.2030525170  -0.001828256092 0.00014530  0.00000165  0.0000249 0.0000
 55 -29189.2009476456   0.002104871368 0.00003114  0.00000031  0.0000271 0.0000
 56 -29189.2010852173  -0.000137571646 0.00006796  0.00000073  0.0000145 0.0000
 57 -29189.2004868243   0.000598392937 0.00001604  0.00000026  0.0000147 0.0000
 58 -29189.1996235455   0.000863278863 0.00001880  0.00000026  0.0000079 0.0000
 59 -29189.1993662803   0.000257265125 0.00001562  0.00000022  0.0000045 0.0000
               *** Restarting incremental Fock matrix formation ***
                                   *** Resetting DIIS ***
 60 -29189.1994222856  -0.000056005243 0.00000224  0.00000004  0.0000030 0.0000
 61 -29189.1994430225  -0.000020736887 0.00000215  0.00000003  0.0000027 0.0000
 62 -29189.1993745967   0.000068425710 0.00000475  0.00000006  0.0000026 0.0000
 63 -29189.1993093272   0.000065269560 0.00000703  0.00000009  0.0000025 0.0000
 64 -29189.1992476253   0.000061701892 0.00000792  0.00000010  0.0000022 0.0000
 65 -29189.1993815080  -0.000133882666 0.00000104  0.00000002  0.0000019 0.0000
 66 -29189.1993582508   0.000023257133 0.00000381  0.00000004  0.0000018 0.0000
 67 -29189.1993459331   0.000012317778 0.00000155  0.00000002  0.0000016 0.0000
 68 -29189.1993805854  -0.000034652352 0.00000120  0.00000001  0.0000015 0.0000
 69 -29189.1993839108  -0.000003325433 0.00000170  0.00000001  0.0000014 0.0000
 70 -29189.1993862683  -0.000002357439 0.00000203  0.00000001  0.0000012 0.0000
 71 -29189.1993885175  -0.000002249264 0.00000224  0.00000002  0.0000010 0.0000
                            ***DIIS convergence achieved***

               *****************************************************
               *                     SUCCESS                       *
               *           SCF CONVERGED AFTER  72 CYCLES          *
               *****************************************************


----------------
TOTAL SCF ENERGY
----------------

Total Energy       :       -29189.19941552 Eh         -794278.49643 eV

Components:
Nuclear Repulsion  :         1523.52441174 Eh           41457.20689 eV
Electronic Energy  :       -30712.72382726 Eh         -835735.70332 eV
One Electron Energy:       -42642.65713954 Eh        -1160365.69262 eV
Two Electron Energy:        11929.93331227 Eh          324629.98930 eV

Virial components:
Potential Energy   :       -84004.48965086 Eh        -2285878.37521 eV
Kinetic Energy     :        54815.29023534 Eh         1491599.87878 eV
Virial Ratio       :            1.53250105


---------------
SCF CONVERGENCE
---------------

  Last Energy change         ...   -2.7004e-05  Tolerance :   1.0000e-08
  Last MAX-Density change    ...    1.6608e-06  Tolerance :   1.0000e-07
  Last RMS-Density change    ...    1.0840e-08  Tolerance :   5.0000e-09
  Last DIIS Error            ...    8.6385e-07  Tolerance :   5.0000e-07

             **** THE GBW FILE WAS UPDATED (/home/nikolayandreadi_2125/_scratch/MP2/NpOH6.gbw) ****
             **** DENSITY FILE WAS UPDATED (/home/nikolayandreadi_2125/_scratch/MP2/NpOH6.scfp.tmp) ****
             **** ENERGY FILE WAS UPDATED (/home/nikolayandreadi_2125/_scratch/MP2/NpOH6.en.tmp) ****
----------------------
UHF SPIN CONTAMINATION
----------------------

Expectation value of <S**2>     :     0.815692
Ideal value S*(S+1) for S=0.5   :     0.750000
Deviation                       :     0.065692

----------------
ORBITAL ENERGIES
----------------
                 SPIN UP ORBITALS
  NO   OCC          E(Eh)            E(eV) 
   0   1.0000   -4373.631713   -119012.5694 
   1   1.0000    -829.303971    -22566.5083 
   2   1.0000    -693.624334    -18874.4777 
   3   1.0000    -693.624267    -18874.4759 
   4   1.0000    -693.624201    -18874.4741 
   5   1.0000    -213.753163     -5816.5193 
   6   1.0000    -175.456796     -4774.4221 
   7   1.0000    -175.456554     -4774.4156 
   8   1.0000    -175.456142     -4774.4043 
   9   1.0000    -139.824111     -3804.8075 
  10   1.0000    -139.823959     -3804.8034 
  11   1.0000    -139.823821     -3804.7996 
  12   1.0000    -139.814813     -3804.5545 
  13   1.0000    -139.814768     -3804.5533 
  14   1.0000     -56.871107     -1547.5415 
  15   1.0000     -44.073607     -1199.3038 
  16   1.0000     -44.073230     -1199.2936 
  17   1.0000     -44.072287     -1199.2679 
  18   1.0000     -30.415937      -827.6597 
  19   1.0000     -30.415242      -827.6408 
  20   1.0000     -30.414641      -827.6244 
  21   1.0000     -30.414222      -827.6131 
  22   1.0000     -30.413796      -827.6015 
  23   1.0000     -20.588178      -560.2328 
  24   1.0000     -20.578421      -559.9673 
  25   1.0000     -20.577387      -559.9392 
  26   1.0000     -20.555560      -559.3452 
  27   1.0000     -20.552559      -559.2636 
  28   1.0000     -20.546726      -559.1048 
  29   1.0000     -16.341637      -444.6786 
  30   1.0000     -16.304239      -443.6609 
  31   1.0000     -16.303325      -443.6360 
  32   1.0000     -16.302790      -443.6215 
  33   1.0000     -16.293557      -443.3702 
  34   1.0000     -16.292934      -443.3533 
  35   1.0000     -16.292889      -443.3520 
  36   1.0000     -13.558338      -368.9411 
  37   1.0000      -9.437738      -256.8139 
  38   1.0000      -9.437272      -256.8012 
  39   1.0000      -9.436594      -256.7828 
  40   1.0000      -4.746454      -129.1576 
  41   1.0000      -4.746021      -129.1458 
  42   1.0000      -4.745236      -129.1244 
  43   1.0000      -4.694466      -127.7429 
  44   1.0000      -4.691176      -127.6534 
  45   1.0000      -2.450258       -66.6749 
  46   1.0000      -1.466074       -39.8939 
  47   1.0000      -1.453605       -39.5546 
  48   1.0000      -1.441848       -39.2347 
  49   1.0000      -1.302807       -35.4512 
  50   1.0000      -1.299579       -35.3633 
  51   1.0000      -1.292824       -35.1795 
  52   1.0000      -1.162648       -31.6373 
  53   1.0000      -1.161540       -31.6071 
  54   1.0000      -1.155112       -31.4322 
  55   1.0000      -0.719626       -19.5820 
  56   1.0000      -0.712463       -19.3871 
  57   1.0000      -0.669692       -18.2232 
  58   1.0000      -0.639991       -17.4150 
  59   1.0000      -0.637616       -17.3504 
  60   1.0000      -0.625935       -17.0326 
  61   1.0000      -0.616480       -16.7753 
  62   1.0000      -0.572305       -15.5732 
  63   1.0000      -0.568562       -15.4714 
  64   1.0000      -0.562938       -15.3183 
  65   1.0000      -0.527990       -14.3673 
  66   1.0000      -0.522978       -14.2310 
  67   1.0000      -0.508586       -13.8393 
  68   1.0000      -0.483008       -13.1433 
  69   1.0000      -0.476433       -12.9644 
  70   1.0000      -0.469266       -12.7694 
  71   1.0000      -0.461032       -12.5453 
  72   1.0000      -0.459913       -12.5149 
  73   1.0000      -0.450251       -12.2520 
  74   0.0000       0.028211         0.7676 
  75   0.0000       0.049141         1.3372 
  76   0.0000       0.053554         1.4573 
  77   0.0000       0.055903         1.5212 
  78   0.0000       0.074583         2.0295 
  79   0.0000       0.077118         2.0985 
  80   0.0000       0.077406         2.1063 
  81   0.0000       0.132855         3.6152 
  82   0.0000       0.135066         3.6753 
  83   0.0000       0.137017         3.7284 
  84   0.0000       0.150248         4.0884 
  85   0.0000       0.155665         4.2358 
  86   0.0000       0.163145         4.4394 
  87   0.0000       0.165317         4.4985 
  88   0.0000       0.179522         4.8851 
  89   0.0000       0.183268         4.9870 
  90   0.0000       0.231808         6.3078 
  91   0.0000       0.238626         6.4933 
  92   0.0000       0.242957         6.6112 
  93   0.0000       0.244843         6.6625 
  94   0.0000       0.253089         6.8869 
  95   0.0000       0.266640         7.2556 
  96   0.0000       0.277972         7.5640 
  97   0.0000       0.288159         7.8412 
  98   0.0000       0.329077         8.9546 
  99   0.0000       0.403530        10.9806 
 100   0.0000       0.440925        11.9982 
 101   0.0000       0.477589        12.9958 
 102   0.0000       0.487046        13.2532 
 103   0.0000       0.530267        14.4293 
 104   0.0000       0.535420        14.5695 
 105   0.0000       0.546432        14.8692 
 106   0.0000       0.558789        15.2054 
 107   0.0000       0.563314        15.3285 
 108   0.0000       0.578175        15.7330 
 109   0.0000       0.589984        16.0543 
 110   0.0000       0.625486        17.0203 
 111   0.0000       0.631021        17.1709 
 112   0.0000       0.649641        17.6776 
 113   0.0000       0.656893        17.8750 
 114   0.0000       0.667575        18.1656 
 115   0.0000       0.689585        18.7646 
 116   0.0000       0.695168        18.9165 
 117   0.0000       0.703237        19.1360 
 118   0.0000       0.705690        19.2028 
 119   0.0000       0.722189        19.6518 
 120   0.0000       0.734547        19.9880 
 121   0.0000       0.736717        20.0471 
 122   0.0000       0.742805        20.2128 
 123   0.0000       0.749280        20.3889 
 124   0.0000       0.759297        20.6615 
 125   0.0000       0.767473        20.8840 
 126   0.0000       0.772905        21.0318 
 127   0.0000       0.783712        21.3259 
 128   0.0000       0.787607        21.4319 
 129   0.0000       0.792737        21.5715 
 130   0.0000       0.808737        22.0069 
 131   0.0000       0.822610        22.3844 
 132   0.0000       0.833705        22.6863 
 133   0.0000       0.855170        23.2704 
 134   0.0000       0.878838        23.9144 
 135   0.0000       0.913684        24.8626 
 136   0.0000       0.956377        26.0243 
 137   0.0000       0.984730        26.7959 
 138   0.0000       0.986868        26.8540 
 139   0.0000       1.050292        28.5799 
 140   0.0000       1.076075        29.2815 
 141   0.0000       1.082876        29.4665 
 142   0.0000       1.134937        30.8832 
 143   0.0000       1.165020        31.7018 
 144   0.0000       1.249310        33.9955 
 145   0.0000       1.304006        35.4838 
 146   0.0000       1.326205        36.0879 
 147   0.0000       1.338890        36.4331 
 148   0.0000       1.389197        37.8020 
 149   0.0000       1.400247        38.1027 
 150   0.0000       1.424561        38.7643 
 151   0.0000       1.458996        39.7013 
 152   0.0000       1.520778        41.3825 
 153   0.0000       1.557518        42.3822 
 154   0.0000       1.578099        42.9423 
 155   0.0000       1.603933        43.6452 
 156   0.0000       1.615700        43.9654 
 157   0.0000       1.648231        44.8506 
 158   0.0000       1.664650        45.2974 
 159   0.0000       1.684166        45.8285 
 160   0.0000       1.724309        46.9208 
 161   0.0000       1.732820        47.1524 
 162   0.0000       1.763516        47.9877 
 163   0.0000       1.771121        48.1947 
 164   0.0000       1.834721        49.9253 
 165   0.0000       1.858095        50.5613 
 166   0.0000       1.862603        50.6840 
 167   0.0000       1.877809        51.0978 
 168   0.0000       1.898499        51.6608 
 169   0.0000       1.905862        51.8611 
 170   0.0000       1.924242        52.3613 
 171   0.0000       1.930044        52.5192 
 172   0.0000       1.953534        53.1584 
 173   0.0000       1.962059        53.3904 
 174   0.0000       1.967141        53.5286 
 175   0.0000       1.991024        54.1785 
 176   0.0000       1.996624        54.3309 
 177   0.0000       2.017861        54.9088 
 178   0.0000       2.034831        55.3706 
 179   0.0000       2.042128        55.5691 
 180   0.0000       2.089928        56.8698 
 181   0.0000       2.113986        57.5245 
 182   0.0000       2.128425        57.9174 
 183   0.0000       2.157898        58.7194 
 184   0.0000       2.183565        59.4178 
 185   0.0000       2.212842        60.2145 
 186   0.0000       2.250009        61.2259 
 187   0.0000       2.285328        62.1869 
 188   0.0000       2.326878        63.3176 
 189   0.0000       2.356012        64.1103 
 190   0.0000       2.380330        64.7721 
 191   0.0000       2.414216        65.6942 
 192   0.0000       2.425173        65.9923 
 193   0.0000       2.435902        66.2843 
 194   0.0000       2.475058        67.3498 
 195   0.0000       2.499479        68.0143 
 196   0.0000       2.523687        68.6730 
 197   0.0000       2.561982        69.7151 
 198   0.0000       2.579265        70.1854 
 199   0.0000       2.597480        70.6810 
 200   0.0000       2.683457        73.0206 
 201   0.0000       2.689694        73.1903 
 202   0.0000       2.707813        73.6833 
 203   0.0000       2.726020        74.1788 
 204   0.0000       2.750289        74.8392 
 205   0.0000       2.760948        75.1292 
 206   0.0000       2.816138        76.6310 
 207   0.0000       2.850484        77.5656 
 208   0.0000       2.867852        78.0382 
 209   0.0000       2.970834        80.8405 
 210   0.0000       2.996392        81.5360 
 211   0.0000       3.024823        82.3096 
 212   0.0000       3.046014        82.8863 
 213   0.0000       3.065572        83.4185 
 214   0.0000       3.077034        83.7303 
 215   0.0000       3.095991        84.2462 
 216   0.0000       3.106084        84.5208 
 217   0.0000       3.138646        85.4069 
 218   0.0000       3.169366        86.2428 
 219   0.0000       3.187595        86.7389 
 220   0.0000       3.200035        87.0774 
 221   0.0000       3.224924        87.7546 
 222   0.0000       3.234144        88.0055 
 223   0.0000       3.262260        88.7706 
 224   0.0000       3.280997        89.2805 
 225   0.0000       3.356760        91.3421 
 226   0.0000       3.358326        91.3847 
 227   0.0000       3.394280        92.3631 
 228   0.0000       3.405664        92.6728 
 229   0.0000       3.473127        94.5086 
 230   0.0000       3.557866        96.8144 
 231   0.0000       3.761490       102.3553 
 232   0.0000       3.780567       102.8745 
 233   0.0000       3.971783       108.0777 
 234   0.0000       4.009459       109.1029 
 235   0.0000       4.035354       109.8076 
 236   0.0000       4.069252       110.7300 
 237   0.0000       4.119129       112.0872 
 238   0.0000       4.127663       112.3194 
 239   0.0000       4.166539       113.3773 
 240   0.0000       4.178244       113.6958 
 241   0.0000       4.219707       114.8241 
 242   0.0000       4.266757       116.1044 
 243   0.0000       4.293611       116.8351 
 244   0.0000       4.322522       117.6218 
 245   0.0000       4.344372       118.2164 
 246   0.0000       4.603946       125.2797 
 247   0.0000       4.645480       126.4099 
 248   0.0000       4.693292       127.7110 
 249   0.0000       5.490493       149.4039 
 250   0.0000       5.504797       149.7931 
 251   0.0000       5.529357       150.4614 
 252   0.0000       5.550600       151.0395 
 253   0.0000       5.555191       151.1644 
 254   0.0000       5.556998       151.2136 
 255   0.0000       5.563745       151.3972 
 256   0.0000       5.570391       151.5781 
 257   0.0000       5.573088       151.6514 
 258   0.0000       5.580866       151.8631 
 259   0.0000       5.583340       151.9304 
 260   0.0000       5.592621       152.1830 
 261   0.0000       5.597456       152.3145 
 262   0.0000       5.600156       152.3880 
 263   0.0000       5.608764       152.6222 
 264   0.0000       5.633694       153.3006 
 265   0.0000       5.643811       153.5759 
 266   0.0000       5.660009       154.0167 
 267   0.0000       5.718588       155.6107 
 268   0.0000       5.725345       155.7946 
 269   0.0000       5.739154       156.1703 
 270   0.0000       5.747771       156.4048 
 271   0.0000       5.777229       157.2064 
 272   0.0000       5.785562       157.4332 
 273   0.0000       5.829592       158.6312 
 274   0.0000       5.834738       158.7713 
 275   0.0000       5.841176       158.9465 
 276   0.0000       5.845246       159.0572 
 277   0.0000       5.859670       159.4497 
 278   0.0000       5.871842       159.7810 
 279   0.0000       5.921337       161.1278 
 280   0.0000       5.929507       161.3501 
 281   0.0000       5.954309       162.0250 
 282   0.0000       5.962382       162.2447 
 283   0.0000       5.980980       162.7508 
 284   0.0000       6.003972       163.3764 
 285   0.0000       6.566291       178.6778 
 286   0.0000       6.586945       179.2399 
 287   0.0000       6.661266       181.2623 
 288   0.0000       6.707316       182.5154 
 289   0.0000       6.729901       183.1299 
 290   0.0000       6.741989       183.4588 
 291   0.0000       6.793489       184.8602 
 292   0.0000       6.821269       185.6162 
 293   0.0000       6.829950       185.8524 
 294   0.0000       6.837013       186.0446 
 295   0.0000       6.865309       186.8146 
 296   0.0000       6.902393       187.8237 
 297   0.0000       6.907916       187.9740 
 298   0.0000       6.916233       188.2003 
 299   0.0000       6.936524       188.7524 
 300   0.0000       6.942404       188.9124 
 301   0.0000       6.965054       189.5288 
 302   0.0000       6.990007       190.2078 
 303   0.0000       7.081133       192.6874 
 304   0.0000       7.099036       193.1746 
 305   0.0000       7.106322       193.3729 
 306   0.0000       7.133273       194.1062 
 307   0.0000       7.148442       194.5190 
 308   0.0000       7.173262       195.1944 
 309   0.0000       7.200072       195.9239 
 310   0.0000       7.211985       196.2481 
 311   0.0000       7.229611       196.7277 
 312   0.0000       7.316233       199.0848 
 313   0.0000       7.334551       199.5833 
 314   0.0000       7.349976       200.0030 
 315   0.0000       7.502879       204.1637 
 316   0.0000       7.526523       204.8071 
 317   0.0000       7.569248       205.9697 
 318   0.0000       7.676130       208.8781 
 319   0.0000       7.698143       209.4771 
 320   0.0000       7.712199       209.8596 
 321   0.0000       8.701551       236.7812 
 322   0.0000       8.739184       237.8053 
 323   0.0000       8.755103       238.2385 
 324   0.0000       9.182112       249.8580 
 325   0.0000       9.190255       250.0796 
 326   0.0000       9.196325       250.2447 
 327   0.0000       9.650250       262.5967 
 328   0.0000       9.675559       263.2853 
 329   0.0000      10.106128       275.0017 
 330   0.0000      13.992206       380.7473 
 331   0.0000      14.128412       384.4536 
 332   0.0000      14.147656       384.9773 
 333   0.0000      14.153667       385.1409 
 334   0.0000      14.316468       389.5709 
 335   0.0000      14.341234       390.2448 
 336   0.0000      14.343193       390.2981 
 337   0.0000      15.403464       419.1496 
 338   0.0000      15.407630       419.2629 
 339   0.0000      15.420956       419.6255 
 340   0.0000      15.579531       423.9406 
 341   0.0000      15.658800       426.0976 
 342   0.0000      15.686418       426.8491 
 343   0.0000      44.522535      1211.5198 
 344   0.0000      47.458848      1291.4209 
 345   0.0000      47.462283      1291.5144 
 346   0.0000      47.465567      1291.6038 
 347   0.0000      47.684904      1297.5722 
 348   0.0000      47.695743      1297.8671 
 349   0.0000      48.041220      1307.2681 
 350   0.0000      48.061545      1307.8211 
 351   0.0000      48.075459      1308.1998 
 352   0.0000      55.144314      1500.5531 
 353   0.0000      55.216284      1502.5115 
 354   0.0000      55.225897      1502.7731 
 355   0.0000      55.229363      1502.8674 
 356   0.0000      55.314570      1505.1860 
 357   0.0000      55.328398      1505.5623 
 358   0.0000      55.329165      1505.5831 
 359   0.0000      79.018392      2150.1998 
 360   0.0000      79.030571      2150.5312 
 361   0.0000      79.036361      2150.6887 
 362   0.0000      79.184809      2154.7282 
 363   0.0000      79.286777      2157.5029 
 364   0.0000      79.312119      2158.1925 
 365   0.0000     207.103468      5635.5719 
 366   0.0000     241.040554      6559.0469 
 367   0.0000     241.042749      6559.1066 
 368   0.0000     241.044881      6559.1647 
 369   0.0000     241.168204      6562.5205 
 370   0.0000     241.172892      6562.6480 
 371   0.0000     268.437407      7304.5532 
 372   0.0000     268.452344      7304.9596 
 373   0.0000     268.459548      7305.1557 
 374   0.0000     802.038862     21824.5870 
 375   0.0000    1104.159162     30045.6983 
 376   0.0000    1104.169184     30045.9710 
 377   0.0000    1104.174143     30046.1059 
 378   0.0000    2461.420879     66978.6673 
 379   0.0000    3842.012217    104546.4675 
 380   0.0000    3842.019047    104546.6533 
 381   0.0000    3842.022491    104546.7470 
 382   0.0000    6167.914070    167837.4745 
 383   0.0000   13165.399640    358248.7372 
 384   0.0000   25155.456911    684514.7826 
 385   0.0000   44355.773933   1206981.9705 
 386   0.0000   84791.349075   2307289.9087 

                 SPIN DOWN ORBITALS
  NO   OCC          E(Eh)            E(eV) 
   0   1.0000   -4373.631970   -119012.5764 
   1   1.0000    -829.303927    -22566.5071 
   2   1.0000    -693.624471    -18874.4814 
   3   1.0000    -693.624384    -18874.4791 
   4   1.0000    -693.624356    -18874.4783 
   5   1.0000    -213.743829     -5816.2653 
   6   1.0000    -175.446033     -4774.1293 
   7   1.0000    -175.445969     -4774.1275 
   8   1.0000    -175.445267     -4774.1084 
   9   1.0000    -139.810762     -3804.4442 
  10   1.0000    -139.810223     -3804.4296 
  11   1.0000    -139.807339     -3804.3511 
  12   1.0000    -139.806977     -3804.3413 
  13   1.0000    -139.806961     -3804.3408 
  14   1.0000     -56.865591     -1547.3914 
  15   1.0000     -44.068834     -1199.1739 
  16   1.0000     -44.068621     -1199.1681 
  17   1.0000     -44.067493     -1199.1375 
  18   1.0000     -30.412486      -827.5658 
  19   1.0000     -30.411316      -827.5340 
  20   1.0000     -30.407441      -827.4285 
  21   1.0000     -30.406837      -827.4121 
  22   1.0000     -30.406603      -827.4057 
  23   1.0000     -20.591037      -560.3106 
  24   1.0000     -20.580872      -560.0340 
  25   1.0000     -20.579946      -560.0088 
  26   1.0000     -20.559854      -559.4621 
  27   1.0000     -20.558696      -559.4305 
  28   1.0000     -20.550885      -559.2180 
  29   1.0000     -16.291394      -443.3114 
  30   1.0000     -16.291086      -443.3030 
  31   1.0000     -16.290381      -443.2838 
  32   1.0000     -16.289774      -443.2673 
  33   1.0000     -16.289164      -443.2507 
  34   1.0000     -16.289131      -443.2498 
  35   1.0000     -16.282407      -443.0668 
  36   1.0000     -13.524605      -368.0232 
  37   1.0000      -9.390284      -255.5226 
  38   1.0000      -9.389003      -255.4877 
  39   1.0000      -9.388239      -255.4670 
  40   1.0000      -4.665564      -126.9565 
  41   1.0000      -4.664997      -126.9410 
  42   1.0000      -4.636187      -126.1571 
  43   1.0000      -4.635121      -126.1281 
  44   1.0000      -4.634694      -126.1164 
  45   1.0000      -2.410424       -65.5910 
  46   1.0000      -1.458875       -39.6980 
  47   1.0000      -1.444649       -39.3109 
  48   1.0000      -1.432227       -38.9729 
  49   1.0000      -1.314188       -35.7609 
  50   1.0000      -1.310690       -35.6657 
  51   1.0000      -1.302654       -35.4470 
  52   1.0000      -1.151757       -31.3409 
  53   1.0000      -1.150004       -31.2932 
  54   1.0000      -1.142086       -31.0777 
  55   1.0000      -0.723989       -19.7007 
  56   1.0000      -0.716894       -19.5077 
  57   1.0000      -0.672839       -18.3089 
  58   1.0000      -0.638544       -17.3757 
  59   1.0000      -0.623921       -16.9777 
  60   1.0000      -0.618726       -16.8364 
  61   1.0000      -0.578317       -15.7368 
  62   1.0000      -0.572319       -15.5736 
  63   1.0000      -0.567050       -15.4302 
  64   1.0000      -0.534291       -14.5388 
  65   1.0000      -0.527843       -14.3634 
  66   1.0000      -0.515520       -14.0280 
  67   1.0000      -0.491869       -13.3844 
  68   1.0000      -0.488949       -13.3050 
  69   1.0000      -0.480754       -13.0820 
  70   1.0000      -0.471088       -12.8190 
  71   1.0000      -0.470398       -12.8002 
  72   1.0000      -0.467116       -12.7109 
  73   0.0000       0.028200         0.7674 
  74   0.0000       0.097335         2.6486 
  75   0.0000       0.097642         2.6570 
  76   0.0000       0.099241         2.7005 
  77   0.0000       0.100927         2.7464 
  78   0.0000       0.103496         2.8163 
  79   0.0000       0.103583         2.8186 
  80   0.0000       0.109522         2.9802 
  81   0.0000       0.134335         3.6555 
  82   0.0000       0.137728         3.7478 
  83   0.0000       0.140374         3.8198 
  84   0.0000       0.152213         4.1419 
  85   0.0000       0.156887         4.2691 
  86   0.0000       0.164339         4.4719 
  87   0.0000       0.166233         4.5234 
  88   0.0000       0.179441         4.8828 
  89   0.0000       0.183332         4.9887 
  90   0.0000       0.240031         6.5316 
  91   0.0000       0.241313         6.5665 
  92   0.0000       0.245257         6.6738 
  93   0.0000       0.261590         7.1182 
  94   0.0000       0.266522         7.2524 
  95   0.0000       0.270629         7.3642 
  96   0.0000       0.284512         7.7420 
  97   0.0000       0.290157         7.8956 
  98   0.0000       0.330623         8.9967 
  99   0.0000       0.402326        10.9478 
 100   0.0000       0.460652        12.5350 
 101   0.0000       0.476949        12.9784 
 102   0.0000       0.485568        13.2130 
 103   0.0000       0.530686        14.4407 
 104   0.0000       0.536160        14.5896 
 105   0.0000       0.548541        14.9266 
 106   0.0000       0.562645        15.3103 
 107   0.0000       0.567526        15.4432 
 108   0.0000       0.579679        15.7739 
 109   0.0000       0.590800        16.0765 
 110   0.0000       0.626154        17.0385 
 111   0.0000       0.631752        17.1908 
 112   0.0000       0.647862        17.6292 
 113   0.0000       0.655006        17.8236 
 114   0.0000       0.665615        18.1123 
 115   0.0000       0.692203        18.8358 
 116   0.0000       0.697470        18.9791 
 117   0.0000       0.706135        19.2149 
 118   0.0000       0.709239        19.2994 
 119   0.0000       0.722359        19.6564 
 120   0.0000       0.734375        19.9834 
 121   0.0000       0.735532        20.0149 
 122   0.0000       0.741724        20.1833 
 123   0.0000       0.748398        20.3649 
 124   0.0000       0.757662        20.6170 
 125   0.0000       0.766551        20.8589 
 126   0.0000       0.772023        21.0078 
 127   0.0000       0.782131        21.2829 
 128   0.0000       0.786629        21.4053 
 129   0.0000       0.790894        21.5213 
 130   0.0000       0.806314        21.9409 
 131   0.0000       0.819577        22.3018 
 132   0.0000       0.831064        22.6144 
 133   0.0000       0.853492        23.2247 
 134   0.0000       0.877198        23.8698 
 135   0.0000       0.913370        24.8541 
 136   0.0000       0.956442        26.0261 
 137   0.0000       0.983631        26.7660 
 138   0.0000       0.987021        26.8582 
 139   0.0000       1.052530        28.6408 
 140   0.0000       1.078189        29.3390 
 141   0.0000       1.084663        29.5152 
 142   0.0000       1.137299        30.9475 
 143   0.0000       1.166360        31.7383 
 144   0.0000       1.249938        34.0125 
 145   0.0000       1.326195        36.0876 
 146   0.0000       1.339267        36.4433 
 147   0.0000       1.358919        36.9781 
 148   0.0000       1.392240        37.8848 
 149   0.0000       1.404517        38.2189 
 150   0.0000       1.428857        38.8812 
 151   0.0000       1.463048        39.8116 
 152   0.0000       1.523502        41.4566 
 153   0.0000       1.559512        42.4365 
 154   0.0000       1.579922        42.9919 
 155   0.0000       1.604282        43.6547 
 156   0.0000       1.617824        44.0232 
 157   0.0000       1.649345        44.8810 
 158   0.0000       1.664430        45.2915 
 159   0.0000       1.684583        45.8398 
 160   0.0000       1.726399        46.9777 
 161   0.0000       1.734343        47.1939 
 162   0.0000       1.764640        48.0183 
 163   0.0000       1.771902        48.2159 
 164   0.0000       1.834191        49.9109 
 165   0.0000       1.856986        50.5312 
 166   0.0000       1.863791        50.7163 
 167   0.0000       1.878518        51.1171 
 168   0.0000       1.899751        51.6948 
 169   0.0000       1.906292        51.8729 
 170   0.0000       1.925933        52.4073 
 171   0.0000       1.930337        52.5271 
 172   0.0000       1.954581        53.1869 
 173   0.0000       1.964096        53.4458 
 174   0.0000       1.966880        53.5215 
 175   0.0000       1.989987        54.1503 
 176   0.0000       1.998503        54.3820 
 177   0.0000       2.019987        54.9666 
 178   0.0000       2.036056        55.4039 
 179   0.0000       2.045045        55.6485 
 180   0.0000       2.091297        56.9071 
 181   0.0000       2.115280        57.5597 
 182   0.0000       2.131174        57.9922 
 183   0.0000       2.160976        58.8032 
 184   0.0000       2.188203        59.5440 
 185   0.0000       2.217924        60.3528 
 186   0.0000       2.252410        61.2912 
 187   0.0000       2.287732        62.2524 
 188   0.0000       2.325891        63.2907 
 189   0.0000       2.355002        64.0829 
 190   0.0000       2.380268        64.7704 
 191   0.0000       2.412999        65.6611 
 192   0.0000       2.426046        66.0161 
 193   0.0000       2.436233        66.2933 
 194   0.0000       2.476056        67.3769 
 195   0.0000       2.500212        68.0342 
 196   0.0000       2.523117        68.6575 
 197   0.0000       2.563067        69.7446 
 198   0.0000       2.579466        70.1908 
 199   0.0000       2.597739        70.6881 
 200   0.0000       2.681654        72.9715 
 201   0.0000       2.688343        73.1535 
 202   0.0000       2.708069        73.6903 
 203   0.0000       2.726758        74.1988 
 204   0.0000       2.750920        74.8563 
 205   0.0000       2.761929        75.1559 
 206   0.0000       2.815869        76.6237 
 207   0.0000       2.850133        77.5561 
 208   0.0000       2.866695        78.0067 
 209   0.0000       2.969352        80.8002 
 210   0.0000       2.994784        81.4922 
 211   0.0000       3.023330        82.2690 
 212   0.0000       3.044042        82.8326 
 213   0.0000       3.064028        83.3764 
 214   0.0000       3.074964        83.6740 
 215   0.0000       3.093799        84.1865 
 216   0.0000       3.104109        84.4671 
 217   0.0000       3.136645        85.3524 
 218   0.0000       3.166769        86.1722 
 219   0.0000       3.183930        86.6391 
 220   0.0000       3.197855        87.0181 
 221   0.0000       3.223743        87.7225 
 222   0.0000       3.232626        87.9642 
 223   0.0000       3.261085        88.7386 
 224   0.0000       3.279685        89.2448 
 225   0.0000       3.353939        91.2653 
 226   0.0000       3.355882        91.3182 
 227   0.0000       3.392118        92.3042 
 228   0.0000       3.404174        92.6323 
 229   0.0000       3.468713        94.3885 
 230   0.0000       3.554963        96.7354 
 231   0.0000       3.758175       102.2651 
 232   0.0000       3.777846       102.8004 
 233   0.0000       4.006262       109.0159 
 234   0.0000       4.035089       109.8003 
 235   0.0000       4.051575       110.2489 
 236   0.0000       4.069898       110.7475 
 237   0.0000       4.122229       112.1716 
 238   0.0000       4.130330       112.3920 
 239   0.0000       4.167419       113.4012 
 240   0.0000       4.180637       113.7609 
 241   0.0000       4.224166       114.9454 
 242   0.0000       4.271923       116.2449 
 243   0.0000       4.294466       116.8584 
 244   0.0000       4.324743       117.6822 
 245   0.0000       4.347078       118.2900 
 246   0.0000       4.614798       125.5750 
 247   0.0000       4.656499       126.7098 
 248   0.0000       4.703739       127.9953 
 249   0.0000       5.489018       149.3638 
 250   0.0000       5.503405       149.7553 
 251   0.0000       5.527409       150.4085 
 252   0.0000       5.548631       150.9859 
 253   0.0000       5.553228       151.1110 
 254   0.0000       5.554655       151.1499 
 255   0.0000       5.561661       151.3405 
 256   0.0000       5.568136       151.5167 
 257   0.0000       5.570355       151.5771 
 258   0.0000       5.577922       151.7830 
 259   0.0000       5.581077       151.8688 
 260   0.0000       5.590651       152.1294 
 261   0.0000       5.594926       152.2457 
 262   0.0000       5.597415       152.3134 
 263   0.0000       5.605951       152.5457 
 264   0.0000       5.630838       153.2229 
 265   0.0000       5.640597       153.4884 
 266   0.0000       5.658000       153.9620 
 267   0.0000       5.715029       155.5138 
 268   0.0000       5.720763       155.6699 
 269   0.0000       5.734791       156.0516 
 270   0.0000       5.744150       156.3063 
 271   0.0000       5.773091       157.0938 
 272   0.0000       5.781795       157.3306 
 273   0.0000       5.827112       158.5638 
 274   0.0000       5.832805       158.7187 
 275   0.0000       5.838869       158.8837 
 276   0.0000       5.842656       158.9868 
 277   0.0000       5.857234       159.3834 
 278   0.0000       5.869690       159.7224 
 279   0.0000       5.919611       161.0808 
 280   0.0000       5.927618       161.2987 
 281   0.0000       5.952600       161.9785 
 282   0.0000       5.959969       162.1790 
 283   0.0000       5.977825       162.6649 
 284   0.0000       6.000729       163.2881 
 285   0.0000       6.563217       178.5942 
 286   0.0000       6.582974       179.1318 
 287   0.0000       6.660169       181.2324 
 288   0.0000       6.704102       182.4279 
 289   0.0000       6.726127       183.0272 
 290   0.0000       6.738430       183.3620 
 291   0.0000       6.789547       184.7530 
 292   0.0000       6.814847       185.4414 
 293   0.0000       6.824248       185.6972 
 294   0.0000       6.832499       185.9218 
 295   0.0000       6.860215       186.6759 
 296   0.0000       6.897954       187.7029 
 297   0.0000       6.902901       187.8375 
 298   0.0000       6.913121       188.1156 
 299   0.0000       6.933622       188.6734 
 300   0.0000       6.939092       188.8223 
 301   0.0000       6.961870       189.4421 
 302   0.0000       6.986847       190.1218 
 303   0.0000       7.076035       192.5487 
 304   0.0000       7.093036       193.0113 
 305   0.0000       7.100538       193.2155 
 306   0.0000       7.127245       193.9422 
 307   0.0000       7.141703       194.3356 
 308   0.0000       7.168627       195.0682 
 309   0.0000       7.194300       195.7668 
 310   0.0000       7.207233       196.1188 
 311   0.0000       7.224593       196.5912 
 312   0.0000       7.308789       198.8823 
 313   0.0000       7.328207       199.4106 
 314   0.0000       7.343219       199.8191 
 315   0.0000       7.498944       204.0566 
 316   0.0000       7.521575       204.6725 
 317   0.0000       7.565975       205.8807 
 318   0.0000       7.672855       208.7890 
 319   0.0000       7.695158       209.3959 
 320   0.0000       7.709275       209.7800 
 321   0.0000       8.716139       237.1782 
 322   0.0000       8.753714       238.2007 
 323   0.0000       8.769295       238.6246 
 324   0.0000       9.206272       250.5154 
 325   0.0000       9.214320       250.7344 
 326   0.0000       9.220188       250.8941 
 327   0.0000       9.657575       262.7960 
 328   0.0000       9.683076       263.4899 
 329   0.0000      10.119785       275.3734 
 330   0.0000      14.057585       382.5263 
 331   0.0000      14.136863       384.6836 
 332   0.0000      14.155781       385.1984 
 333   0.0000      14.161657       385.3583 
 334   0.0000      14.332175       389.9983 
 335   0.0000      14.357201       390.6793 
 336   0.0000      14.360532       390.7699 
 337   0.0000      15.399575       419.0437 
 338   0.0000      15.403748       419.1573 
 339   0.0000      15.416236       419.4971 
 340   0.0000      15.577667       423.8899 
 341   0.0000      15.656638       426.0388 
 342   0.0000      15.684436       426.7952 
 343   0.0000      44.529487      1211.7089 
 344   0.0000      47.468359      1291.6797 
 345   0.0000      47.471859      1291.7750 
 346   0.0000      47.474895      1291.8576 
 347   0.0000      47.689392      1297.6943 
 348   0.0000      47.700431      1297.9947 
 349   0.0000      48.047904      1307.4499 
 350   0.0000      48.068282      1308.0045 
 351   0.0000      48.082101      1308.3805 
 352   0.0000      55.178787      1501.4911 
 353   0.0000      55.220127      1502.6160 
 354   0.0000      55.229584      1502.8734 
 355   0.0000      55.232987      1502.9660 
 356   0.0000      55.322920      1505.4132 
 357   0.0000      55.337525      1505.8106 
 358   0.0000      55.337911      1505.8211 
 359   0.0000      79.016854      2150.1579 
 360   0.0000      79.028942      2150.4868 
 361   0.0000      79.034607      2150.6410 
 362   0.0000      79.183698      2154.6980 
 363   0.0000      79.285568      2157.4700 
 364   0.0000      79.311015      2158.1624 
 365   0.0000     207.107115      5635.6711 
 366   0.0000     241.044771      6559.1617 
 367   0.0000     241.046979      6559.2217 
 368   0.0000     241.049048      6559.2781 
 369   0.0000     241.170013      6562.5697 
 370   0.0000     241.174788      6562.6996 
 371   0.0000     268.440394      7304.6345 
 372   0.0000     268.455336      7305.0411 
 373   0.0000     268.462507      7305.2362 
 374   0.0000     802.040124     21824.6213 
 375   0.0000    1104.159770     30045.7148 
 376   0.0000    1104.169784     30045.9873 
 377   0.0000    1104.174724     30046.1217 
 378   0.0000    2461.421102     66978.6733 
 379   0.0000    3842.012195    104546.4669 
 380   0.0000    3842.019017    104546.6525 
 381   0.0000    3842.022452    104546.7460 
 382   0.0000    6167.914074    167837.4746 
 383   0.0000   13165.399619    358248.7366 
 384   0.0000   25155.456899    684514.7823 
 385   0.0000   44355.773931   1206981.9704 
 386   0.0000   84791.349082   2307289.9089 

                    ********************************
                    * MULLIKEN POPULATION ANALYSIS *
                    ********************************

--------------------------------------------
MULLIKEN ATOMIC CHARGES AND SPIN POPULATIONS
--------------------------------------------
   0 O :   -0.889521   -0.077144
   1 Np:    3.157431    1.384896
   2 O :   -0.898614   -0.032384
   3 O :   -0.938938   -0.031614
   4 O :   -0.891889   -0.034814
   5 O :   -0.839836   -0.114322
   6 O :   -0.888154   -0.074280
   7 H :    0.370845   -0.011518
   8 H :    0.359795   -0.009779
   9 H :    0.366679    0.003751
  10 H :    0.371048    0.005806
  11 H :    0.360221   -0.011122
  12 H :    0.360933    0.002524
Sum of atomic charges         :    0.0000000
Sum of atomic spin populations:    1.0000000

-----------------------------------------------------
MULLIKEN REDUCED ORBITAL CHARGES AND SPIN POPULATIONS
-----------------------------------------------------
CHARGE
  0 O s       :     3.933823  s :     3.933823
      pz      :     1.595082  p :     4.935520
      px      :     1.553517
      py      :     1.786921
      dz2     :     0.004753  d :     0.019147
      dxz     :     0.006758
      dyz     :     0.003663
      dx2y2   :     0.001643
      dxy     :     0.002331
      f0      :     0.000031  f :     0.001030
      f+1     :     0.000217
      f-1     :     0.000111
      f+2     :     0.000190
      f-2     :     0.000191
      f+3     :     0.000140
      f-3     :     0.000150
  1 Nps       :    12.272865  s :    12.272865
      pz      :     9.916928  p :    29.743827
      px      :     9.911667
      py      :     9.915231
      dz2     :     6.232426  d :    31.206970
      dxz     :     6.242374
      dyz     :     6.231752
      dx2y2   :     6.262788
      dxy     :     6.237630
      f0      :     2.320745  f :    16.618907
      f+1     :     2.272774
      f-1     :     2.334868
      f+2     :     2.196531
      f-2     :     2.850582
      f+3     :     2.270890
      f-3     :     2.372517
  2 O s       :     3.913301  s :     3.913301
      pz      :     1.825035  p :     4.971362
      px      :     1.324932
      py      :     1.821395
      dz2     :     0.001710  d :     0.011191
      dxz     :     0.002146
      dyz     :     0.000256
      dx2y2   :     0.004851
      dxy     :     0.002228
      f0      :     0.000261  f :     0.002760
      f+1     :     0.000513
      f-1     :     0.000035
      f+2     :     0.000432
      f-2     :     0.000089
      f+3     :     0.000854
      f-3     :     0.000576
  3 O s       :     3.937190  s :     3.937190
      pz      :     1.346949  p :     4.988481
      px      :     1.793489
      py      :     1.848043
      dz2     :     0.005270  d :     0.010878
      dxz     :     0.003493
      dyz     :     0.001718
      dx2y2   :     0.000228
      dxy     :     0.000169
      f0      :     0.000956  f :     0.002389
      f+1     :     0.000834
      f-1     :     0.000382
      f+2     :     0.000122
      f-2     :     0.000088
      f+3     :     0.000003
      f-3     :     0.000004
  4 O s       :     3.910360  s :     3.910360
      pz      :     1.840490  p :     4.967960
      px      :     1.841272
      py      :     1.286198
      dz2     :     0.001743  d :     0.010717
      dxz     :     0.000220
      dyz     :     0.002107
      dx2y2   :     0.004668
      dxy     :     0.001979
      f0      :     0.000222  f :     0.002852
      f+1     :     0.000037
      f-1     :     0.000641
      f+2     :     0.000351
      f-2     :     0.000016
      f+3     :     0.000518
      f-3     :     0.001067
  5 O s       :     3.938110  s :     3.938110
      pz      :     1.782820  p :     4.878344
      px      :     1.480835
      py      :     1.614689
      dz2     :     0.002461  d :     0.022408
      dxz     :     0.004087
      dyz     :     0.002575
      dx2y2   :     0.011269
      dxy     :     0.002017
      f0      :     0.000214  f :     0.000974
      f+1     :     0.000125
      f-1     :     0.000115
      f+2     :     0.000176
      f-2     :     0.000063
      f+3     :     0.000077
      f-3     :     0.000203
  6 O s       :     3.919449  s :     3.919449
      pz      :     1.614699  p :     4.948942
      px      :     1.821200
      py      :     1.513043
      dz2     :     0.004496  d :     0.018596
      dxz     :     0.001974
      dyz     :     0.004447
      dx2y2   :     0.006127
      dxy     :     0.001552
      f0      :     0.000250  f :     0.001167
      f+1     :     0.000139
      f-1     :     0.000044
      f+2     :     0.000358
      f-2     :     0.000082
      f+3     :     0.000078
      f-3     :     0.000218
  7 H s       :     0.585291  s :     0.585291
      pz      :     0.019068  p :     0.043863
      px      :     0.012919
      py      :     0.011876
  8 H s       :     0.590050  s :     0.590050
      pz      :     0.014646  p :     0.050155
      px      :     0.020977
      py      :     0.014533
  9 H s       :     0.589315  s :     0.589315
      pz      :     0.015420  p :     0.044006
      px      :     0.015224
      py      :     0.013362
 10 H s       :     0.585094  s :     0.585094
      pz      :     0.013577  p :     0.043859
      px      :     0.017969
      py      :     0.012312
 11 H s       :     0.588305  s :     0.588305
      pz      :     0.014851  p :     0.051474
      px      :     0.014802
      py      :     0.021821
 12 H s       :     0.591795  s :     0.591795
      pz      :     0.015293  p :     0.047272
      px      :     0.014518
      py      :     0.017461

SPIN
  0 O s       :    -0.001657  s :    -0.001657
      pz      :    -0.011631  p :    -0.076044
      px      :    -0.051496
      py      :    -0.012917
      dz2     :    -0.000018  d :     0.000533
      dxz     :     0.000295
      dyz     :     0.000027
      dx2y2   :     0.000087
      dxy     :     0.000142
      f0      :    -0.000001  f :     0.000025
      f+1     :     0.000014
      f-1     :    -0.000001
      f+2     :    -0.000002
      f-2     :     0.000007
      f+3     :     0.000007
      f-3     :    -0.000000
  1 Nps       :    -0.003655  s :    -0.003655
      pz      :    -0.006928  p :    -0.024076
      px      :    -0.007258
      py      :    -0.009891
      dz2     :     0.018568  d :     0.086462
      dxz     :     0.015522
      dyz     :     0.015898
      dx2y2   :     0.021092
      dxy     :     0.015382
      f0      :     0.070441  f :     1.326166
      f+1     :     0.053043
      f-1     :     0.156434
      f+2     :     0.031957
      f-2     :     0.823834
      f+3     :     0.054584
      f-3     :     0.135873
  2 O s       :    -0.003983  s :    -0.003983
      pz      :    -0.009127  p :    -0.028002
      px      :    -0.007913
      py      :    -0.010962
      dz2     :    -0.000108  d :    -0.000445
      dxz     :    -0.000052
      dyz     :     0.000099
      dx2y2   :    -0.000370
      dxy     :    -0.000014
      f0      :     0.000003  f :     0.000046
      f+1     :     0.000006
      f-1     :     0.000001
      f+2     :     0.000007
      f-2     :     0.000010
      f+3     :     0.000008
      f-3     :     0.000011
  3 O s       :    -0.003758  s :    -0.003758
      pz      :    -0.011119  p :    -0.027423
      px      :    -0.007549
      py      :    -0.008756
      dz2     :    -0.000408  d :    -0.000474
      dxz     :    -0.000166
      dyz     :     0.000004
      dx2y2   :     0.000006
      dxy     :     0.000089
      f0      :     0.000014  f :     0.000042
      f+1     :     0.000006
      f-1     :     0.000008
      f+2     :     0.000002
      f-2     :     0.000010
      f+3     :     0.000000
      f-3     :     0.000001
[...]
      dxz     :     0.000043
      dyz     :    -0.000071
      dx2y2   :    -0.000406
      dxy     :    -0.000125
      f0      :    -0.000000  f :    -0.000019
      f+1     :    -0.000000
      f-1     :    -0.000006
      f+2     :    -0.000003
      f-2     :     0.000000
      f+3     :    -0.000004
      f-3     :    -0.000005
  6 O s       :     0.000896  s :     0.000896
      pz      :    -0.006430  p :    -0.021829
      px      :    -0.013433
      py      :    -0.001966
      dz2     :    -0.000358  d :    -0.000655
      dxz     :    -0.000139
      dyz     :    -0.000147
      dx2y2   :    -0.000033
      dxy     :     0.000022
      f0      :    -0.000006  f :    -0.000019
      f+1     :    -0.000006
      f-1     :    -0.000002
      f+2     :    -0.000002
      f-2     :    -0.000001
      f+3     :    -0.000002
      f-3     :     0.000000
  7 H s       :    -0.002327  s :    -0.002327
      pz      :     0.000003  p :    -0.000206
      px      :    -0.000101
      py      :    -0.000108
  8 H s       :    -0.002291  s :    -0.002291
      pz      :    -0.000100  p :    -0.000205
      px      :     0.000000
      py      :    -0.000106
  9 H s       :    -0.003035  s :    -0.003035
      pz      :     0.000032  p :    -0.000263
      px      :    -0.000198
      py      :    -0.000098
 10 H s       :    -0.002980  s :    -0.002980
      pz      :    -0.000087  p :    -0.000265
      px      :     0.000047
      py      :    -0.000225
 11 H s       :    -0.002325  s :    -0.002325
      pz      :    -0.000109  p :    -0.000205
      px      :    -0.000104
      py      :     0.000008
 12 H s       :    -0.002983  s :    -0.002983
      pz      :    -0.000200  p :    -0.000264
      px      :    -0.000125
      py      :     0.000061


                     *******************************
                     * LOEWDIN POPULATION ANALYSIS *
                     *******************************

-----------------------------------------
LOEWDIN ATOMIC CHARGES AND SPIN DENSITIES
-----------------------------------------
   0 O :   -0.142898   -0.018858
   1 Np:   -0.591103    1.139538
   2 O :   -0.047393   -0.022126
   3 O :   -0.047244   -0.022227
   4 O :   -0.047475   -0.022196
   5 O :   -0.143408   -0.019334
   6 O :   -0.143339   -0.019292
   7 H :    0.192022   -0.002431
   8 H :    0.191965   -0.002410
   9 H :    0.195749   -0.002757
  10 H :    0.195516   -0.002739
  11 H :    0.191963   -0.002429
  12 H :    0.195645   -0.002739

--------------------------------------------------
LOEWDIN REDUCED ORBITAL CHARGES AND SPIN DENSITIES
--------------------------------------------------
CHARGE
  0 O s       :     3.459172  s :     3.459172
      pz      :     1.484335  p :     4.607454
      px      :     1.494442
      py      :     1.628678
      dz2     :     0.015085  d :     0.071178
      dxz     :     0.019360
      dyz     :     0.007912
      dx2y2   :     0.020007
      dxy     :     0.008813
      f0      :     0.000516  f :     0.005094
      f+1     :     0.001221
      f-1     :     0.000467
      f+2     :     0.000895
      f-2     :     0.000538
      f+3     :     0.000898
      f-3     :     0.000558
  1 Nps       :    12.088482  s :    12.088482
      pz      :    10.020996  p :    30.064177
      px      :    10.021829
      py      :    10.021352
      dz2     :     6.639665  d :    32.715189
      dxz     :     6.504259
      dyz     :     6.446623
      dx2y2   :     6.669260
      dxy     :     6.455382
      f0      :     2.739099  f :    18.723254
      f+1     :     2.625373
      f-1     :     2.616442
      f+2     :     2.507012
      f-2     :     2.890443
      f+3     :     2.627262
      f-3     :     2.717623
  2 O s       :     3.373280  s :     3.373280
      pz      :     1.591882  p :     4.559271
      px      :     1.364427
      py      :     1.602962
      dz2     :     0.018326  d :     0.106854
      dxz     :     0.020955
      dyz     :     0.007051
      dx2y2   :     0.047273
      dxy     :     0.013249
      f0      :     0.000915  f :     0.007988
      f+1     :     0.001339
      f-1     :     0.000392
      f+2     :     0.001364
      f-2     :     0.000559
      f+3     :     0.002345
      f-3     :     0.001073
  3 O s       :     3.373246  s :     3.373246
      pz      :     1.349287  p :     4.559098
      px      :     1.599876
      py      :     1.609935
      dz2     :     0.061997  d :     0.106909
      dxz     :     0.018986
      dyz     :     0.012409
      dx2y2   :     0.006659
      dxy     :     0.006858
      f0      :     0.003558  f :     0.007992
      f+1     :     0.001694
      f-1     :     0.001019
      f+2     :     0.000495
      f-2     :     0.000516
      f+3     :     0.000353
      f-3     :     0.000357
  4 O s       :     3.373250  s :     3.373250
      pz      :     1.606119  p :     4.559363
      px      :     1.611175
      py      :     1.342069
      dz2     :     0.021889  d :     0.106872
      dxz     :     0.006577
      dyz     :     0.012438
      dx2y2   :     0.052872
      dxy     :     0.013096
      f0      :     0.000621  f :     0.007990
      f+1     :     0.000396
      f-1     :     0.001863
      f+2     :     0.000786
      f-2     :     0.000459
      f+3     :     0.001061
      f-3     :     0.002804
  5 O s       :     3.458937  s :     3.458937
      pz      :     1.602104  p :     4.608304
      px      :     1.442438
      py      :     1.563761
      dz2     :     0.012704  d :     0.071072
      dxz     :     0.011075
      dyz     :     0.009551
      dx2y2   :     0.026888
      dxy     :     0.010853
      f0      :     0.000698  f :     0.005095
      f+1     :     0.000438
      f-1     :     0.000741
      f+2     :     0.000754
      f-2     :     0.000562
      f+3     :     0.000624
      f-3     :     0.001278
  6 O s       :     3.458933  s :     3.458933
      pz      :     1.553484  p :     4.608199
      px      :     1.627407
      py      :     1.427309
      dz2     :     0.023704  d :     0.071111
      dxz     :     0.012732
      dyz     :     0.012707
      dx2y2   :     0.015314
      dxy     :     0.006654
      f0      :     0.001182  f :     0.005095
      f+1     :     0.000823
      f-1     :     0.000520
      f+2     :     0.000926
      f-2     :     0.000421
      f+3     :     0.000377
      f-3     :     0.000846
  7 H s       :     0.638469  s :     0.638469
      pz      :     0.085754  p :     0.169508
      px      :     0.042617
      py      :     0.041138
  8 H s       :     0.638506  s :     0.638506
      pz      :     0.044104  p :     0.169529
      px      :     0.084113
      py      :     0.041312
  9 H s       :     0.636268  s :     0.636268
      pz      :     0.073319  p :     0.167983
      px      :     0.052335
      py      :     0.042329
 10 H s       :     0.636531  s :     0.636531
      pz      :     0.046886  p :     0.167953
      px      :     0.076958
      py      :     0.044109
 11 H s       :     0.638496  s :     0.638496
      pz      :     0.040875  p :     0.169541
      px      :     0.041149
      py      :     0.087516
 12 H s       :     0.636376  s :     0.636376
      pz      :     0.046563  p :     0.167979
      px      :     0.040527
      py      :     0.080889

SPIN
  0 O s       :     0.000542  s :     0.000542
      pz      :    -0.003464  p :    -0.018599
      px      :    -0.005477
      py      :    -0.009657
      dz2     :    -0.000151  d :    -0.000782
      dxz     :    -0.000314
      dyz     :     0.000127
      dx2y2   :    -0.000465
      dxy     :     0.000020
      f0      :    -0.000005  f :    -0.000018
      f+1     :    -0.000006
      f-1     :     0.000001
      f+2     :    -0.000003
      f-2     :     0.000006
      f+3     :    -0.000013
      f-3     :     0.000003
  1 Nps       :    -0.000468  s :    -0.000468
      pz      :     0.003619  p :     0.010657
      px      :     0.003479
      py      :     0.003559
      dz2     :    -0.003898  d :     0.021622
      dxz     :     0.007991
      dyz     :     0.011734
      dx2y2   :    -0.005815
      dxy     :     0.011608
      f0      :     0.024744  f :     1.107727
      f+1     :     0.020649
      f-1     :     0.131202
      f+2     :     0.031016
      f-2     :     0.788938
      f+3     :     0.023443
      f-3     :     0.087734
  2 O s       :    -0.002101  s :    -0.002101
      pz      :    -0.008189  p :    -0.019723
      px      :    -0.002897
      py      :    -0.008637
      dz2     :    -0.000160  d :    -0.000391
      dxz     :    -0.000058
      dyz     :     0.000402
      dx2y2   :    -0.000707
      dxy     :     0.000132
      f0      :     0.000003  f :     0.000089
      f+1     :     0.000006
      f-1     :     0.000007
      f+2     :     0.000008
      f-2     :     0.000047
      f+3     :     0.000001
      f-3     :     0.000017
  3 O s       :    -0.002122  s :    -0.002122
      pz      :    -0.002966  p :    -0.019792
      px      :    -0.008221
      py      :    -0.008604
      dz2     :    -0.000966  d :    -0.000402
      dxz     :     0.000004
      dyz     :     0.000148
      dx2y2   :    -0.000009
      dxy     :     0.000421
      f0      :     0.000004  f :     0.000089
      f+1     :     0.000009
      f-1     :     0.000017
      f+2     :     0.000002
      f-2     :     0.000054
      f+3     :    -0.000001
      f-3     :     0.000002
  4 O s       :    -0.002121  s :    -0.002121
      pz      :    -0.008818  p :    -0.019763
      px      :    -0.008341
      py      :    -0.002604
      dz2     :    -0.000241  d :    -0.000400
      dxz     :     0.000342
      dyz     :     0.000144
      dx2y2   :    -0.000790
      dxy     :     0.000145
      f0      :     0.000005  f :     0.000089
      f+1     :    -0.000000
      f-1     :     0.000007
      f+2     :     0.000008
      f-2     :     0.000049
      f+3     :     0.000013
      f-3     :     0.000006
  5 O s       :     0.000514  s :     0.000514
      pz      :    -0.009500  p :    -0.019057
      px      :    -0.001218
      py      :    -0.008339
      dz2     :    -0.000161  d :    -0.000773
      dxz     :     0.000089
      dyz     :    -0.000023
      dx2y2   :    -0.000633
      dxy     :    -0.000045
      f0      :    -0.000000  f :    -0.000018
      f+1     :    -0.000001
      f-1     :    -0.000009
      f+2     :    -0.000003
      f-2     :     0.000006
      f+3     :    -0.000001
      f-3     :    -0.000010
  6 O s       :     0.000513  s :     0.000513
      pz      :    -0.006393  p :    -0.019014
      px      :    -0.011420
      py      :    -0.001201
      dz2     :    -0.000545  d :    -0.000773
      dxz     :    -0.000190
      dyz     :    -0.000056
      dx2y2   :    -0.000065
      dxy     :     0.000082
      f0      :    -0.000009  f :    -0.000018
      f+1     :    -0.000010
      f-1     :     0.000004
      f+2     :    -0.000003
      f-2     :     0.000004
      f+3     :    -0.000002
      f-3     :    -0.000002
  7 H s       :    -0.001460  s :    -0.001460
      pz      :    -0.000326  p :    -0.000971
      px      :    -0.000321
      py      :    -0.000324
  8 H s       :    -0.001437  s :    -0.001437
      pz      :    -0.000319  p :    -0.000973
      px      :    -0.000327
      py      :    -0.000327
  9 H s       :    -0.002093  s :    -0.002093
      pz      :     0.000151  p :    -0.000664
      px      :    -0.000502
      py      :    -0.000312
 10 H s       :    -0.002064  s :    -0.002064
      pz      :    -0.000263  p :    -0.000675
      px      :     0.000180
      py      :    -0.000592
 11 H s       :    -0.001459  s :    -0.001459
      pz      :    -0.000332  p :    -0.000970
      px      :    -0.000317
      py      :    -0.000321
 12 H s       :    -0.002064  s :    -0.002064
      pz      :    -0.000513  p :    -0.000674
      px      :    -0.000402
      py      :     0.000241


                      *****************************
                      * MAYER POPULATION ANALYSIS *
                      *****************************

  NA   - Mulliken gross atomic population
  ZA   - Total nuclear charge
  QA   - Mulliken gross atomic charge
  VA   - Mayer's total valence
  BVA  - Mayer's bonded valence
  FA   - Mayer's free valence

  ATOM       NA         ZA         QA         VA         BVA        FA
  0 O      8.7205     8.0000    -0.7205     2.1279     1.6622     0.4656
  1 Np    90.7532    93.0000     2.2468     5.2222     2.9890     2.2332
  2 O      8.7229     8.0000    -0.7229     1.6038     1.1318     0.4720
  3 O      8.7228     8.0000    -0.7228     1.6030     1.1310     0.4720
  4 O      8.7233     8.0000    -0.7233     1.6026     1.1306     0.4720
  5 O      8.7219     8.0000    -0.7219     2.1268     1.6610     0.4658
  6 O      8.7218     8.0000    -0.7218     2.1269     1.6610     0.4658
  7 H      0.6622     1.0000     0.3378     0.9143     0.8660     0.0484
  8 H      0.6623     1.0000     0.3377     0.9144     0.8660     0.0484
  9 H      0.6422     1.0000     0.3578     0.8816     0.8291     0.0525
 10 H      0.6425     1.0000     0.3575     0.8819     0.8295     0.0525
 11 H      0.6623     1.0000     0.3377     0.9144     0.8661     0.0484
 12 H      0.6421     1.0000     0.3579     0.8816     0.8292     0.0524

  Mayer bond orders larger than 0.1
B(  0-O ,  1-Np) :   0.7944 B(  0-O ,  9-H ) :   0.8155 B(  1-Np,  2-O ) :   0.1475 
B(  1-Np,  3-O ) :   0.1468 B(  1-Np,  4-O ) :   0.1460 B(  1-Np,  5-O ) :   0.7936 
B(  1-Np,  6-O ) :   0.7938 B(  2-O ,  8-H ) :   0.8250 B(  3-O ,  7-H ) :   0.8249 
B(  4-O , 11-H ) :   0.8250 B(  5-O , 10-H ) :   0.8158 B(  6-O , 12-H ) :   0.8156 



----------------------------------
MP2 DERIVATIVE INTEGRAL GENERATION
----------------------------------


Input Wavefunction Amplitudes       ... /home/nikolayandreadi_2125/_scratch/MP2/NpOH6.mp2tbb.tmp.proc19
Input Correlated Electron Density   ... /home/nikolayandreadi_2125/_scratch/MP2/NpOH6.pmp2re
Input Energy Weighted Density       ... /home/nikolayandreadi_2125/_scratch/MP2/NpOH6.wmp2.tmp
Input SCF Electron Density          ... /home/nikolayandreadi_2125/_scratch/MP2/NpOH6.scfp.tmp

One-Electron Terms    ...
                        ... One-Electron Terms done
Prescreening matrices              ... done

Batch handling in the gradient evaluation:
Memory available                      ... 31500.0 MB
Memory per occupied orbital in Q2     ...   76.6 MB
Memory per occupied orbital in Q3     ...    0.1 MB
Total memory requirement per |i>      ...   76.7 MB
Max. Number of orbitals possible      ...    410
Number of orbitals treated per batch  ...     67
Number of batches to be done          ...      1
Batch   0: i=   40 ...   106

---------------------------------------
MP2 TOTAL ENERGY:   -29191.726755922 Eh
---------------------------------------

-----------------------------------
NORM OF THE MP2 GRADIENT:  0.000580
-----------------------------------

-------------------------   --------------------
FINAL SINGLE POINT ENERGY    -29191.726755922155
-------------------------   --------------------

                                *** OPTIMIZATION RUN DONE ***

                            ***************************************
                            *     ORCA property calculations      *
                            ***************************************

                                    ---------------------
                                    Active property flags
                                    ---------------------
   (+) Dipole Moment


------------------------------------------------------------------------------
                       ORCA ELECTRIC PROPERTIES CALCULATION
------------------------------------------------------------------------------

Dipole Moment Calculation                       ... on
Quadrupole Moment Calculation                   ... off
Polarizability Calculation                      ... off
GBWName                                         ... /home/nikolayandreadi_2125/_scratch/MP2/NpOH6.gbw
Electron density file                           ... /home/nikolayandreadi_2125/_scratch/MP2/NpOH6.scfp.tmp
The origin for moment calculation is the CENTER OF MASS  = (10.764982,  0.977464  5.155725)

-------------
DIPOLE MOMENT
-------------
                                X             Y             Z
Electronic contribution:     -2.35655       1.74582      -1.39501
Nuclear contribution   :      1.58535      -1.19334       0.94213
                        -----------------------------------------
Total Dipole Moment    :     -0.77120       0.55247      -0.45287
                        -----------------------------------------
Magnitude (a.u.)       :      1.05122
Magnitude (Debye)      :      2.67199


                         *** MP2 UNRELAXED DENSITY ***

------------------------------------------------------------------------------
                       ORCA ELECTRIC PROPERTIES CALCULATION
------------------------------------------------------------------------------

Dipole Moment Calculation                       ... on
Quadrupole Moment Calculation                   ... off
Polarizability Calculation                      ... off
GBWName                                         ... /home/nikolayandreadi_2125/_scratch/MP2/NpOH6.gbw
Electron density file                           ... /home/nikolayandreadi_2125/_scratch/MP2/NpOH6.pmp2ur
The origin for moment calculation is the CENTER OF MASS  = (10.764982,  0.977464  5.155725)

-------------
DIPOLE MOMENT
-------------
                                X             Y             Z
Electronic contribution:     -2.33279       1.72837      -1.38125
Nuclear contribution   :      1.58535      -1.19334       0.94213
                        -----------------------------------------
Total Dipole Moment    :     -0.74743       0.53503      -0.43911
                        -----------------------------------------
Magnitude (a.u.)       :      1.01869
Magnitude (Debye)      :      2.58931


                           *** MP2 RELAXED DENSITY ***

------------------------------------------------------------------------------
                       ORCA ELECTRIC PROPERTIES CALCULATION
------------------------------------------------------------------------------

Dipole Moment Calculation                       ... on
Quadrupole Moment Calculation                   ... off
Polarizability Calculation                      ... off
GBWName                                         ... /home/nikolayandreadi_2125/_scratch/MP2/NpOH6.gbw
Electron density file                           ... /home/nikolayandreadi_2125/_scratch/MP2/NpOH6.pmp2re
The origin for moment calculation is the CENTER OF MASS  = (10.764982,  0.977464  5.155725)

-------------
DIPOLE MOMENT
-------------
                                X             Y             Z
Electronic contribution:     -2.26379       1.67716      -1.34032
Nuclear contribution   :      1.58535      -1.19334       0.94213
                        -----------------------------------------
Total Dipole Moment    :     -0.67843       0.48382      -0.39819
                        -----------------------------------------
Magnitude (a.u.)       :      0.92353
Magnitude (Debye)      :      2.34742


Timings for individual modules:

Sum of individual times         ...    24968.886 sec (= 416.148 min)
GTO integral calculation        ...       48.583 sec (=   0.810 min)   0.2 %
Relativistic integrals          ...       16.625 sec (=   0.277 min)   0.1 %
SCF iterations                  ...     2540.795 sec (=  42.347 min)  10.2 %
MP2 module                      ...    22361.672 sec (= 372.695 min)  89.6 %
Geometry relaxation             ...        1.211 sec (=   0.020 min)   0.0 %
                             ****ORCA TERMINATED NORMALLY****
TOTAL RUN TIME: 0 days 6 hours 56 minutes 14 seconds 746 msec
