
                                 *****************
                                 * O   R   C   A *
                                 *****************

           --- An Ab Initio, DFT and Semiempirical electronic structure package ---

                  #######################################################
                  #                        -***-                        #
                  #  Department of molecular theory and spectroscopy    #
                  #              Directorship: Frank Neese              #
                  # Max Planck Institute for Chemical Energy Conversion #
                  #                  D-45470 Muelheim/Ruhr              #
                  #                       Germany                       #
                  #                                                     #
                  #                  All rights reserved                #
                  #                        -***-                        #
                  #######################################################


                         Program Version 4.0.1.2 - RELEASE -


 With contributions from (in alphabetic order):
   Daniel Aravena         : Magnetic Properties
   Michael Atanasov       : Ab Initio Ligand Field Theory
   Ute Becker             : Parallelization
   Martin Brehm           : Molecular dynamics
   Dmytro Bykov           : SCF Hessian
   Vijay G. Chilkuri      : MRCI spin determinant printing
   Dipayan Datta          : RHF DLPNO-CCSD density
   Achintya Kumar Dutta   : EOM-CC, STEOM-CC
   Dmitry Ganyushin       : Spin-Orbit,Spin-Spin,Magnetic field MRCI
   Yang Guo               : DLPNO-NEVPT2, CIM, IAO-localization
   Andreas Hansen         : Spin unrestricted coupled pair/coupled cluster methods
   Lee Huntington         : MR-EOM, pCC
   Robert Izsak           : Overlap fitted RIJCOSX, COSX-SCS-MP3, EOM
   Christian Kollmar      : KDIIS, OOCD, Brueckner-CCSD(T), CCSD density
   Simone Kossmann        : Meta GGA functionals, TD-DFT gradient, OOMP2, MP2 Hessian
   Martin Krupicka        : AUTO-CI
   Dagmar Lenk            : GEPOL surface
   Dimitrios Liakos       : Extrapolation schemes; parallel MDCI
   Dimitrios Manganas     : ROCIS; embedding schemes
   Dimitrios Pantazis     : SARC Basis sets
   Taras Petrenko         : DFT Hessian,TD-DFT gradient, ASA, ECA, R-Raman, ABS, FL, XAS/XES, NRVS
   Peter Pinski           : DLPNO-MP2
   Christoph Reimann      : Effective Core Potentials
   Marius Retegan         : Local ZFS, SOC
   Christoph Riplinger    : Optimizer, TS searches, QM/MM, DLPNO-CCSD(T), (RO)-DLPNO pert. Triples
   Tobias Risthaus        : Range-separated hybrids, TD-DFT gradient, RPA, STAB
   Michael Roemelt        : Restricted open shell CIS
   Masaaki Saitow         : Open-shell DLPNO
   Barbara Sandhoefer     : DKH picture change effects
   Kantharuban Sivalingam : CASSCF convergence, NEVPT2, FIC-MRCI
   Georgi Stoychev        : AutoAux
   Boris Wezisla          : Elementary symmetry handling
   Frank Wennmohs         : Technical directorship


 We gratefully acknowledge several colleagues who have allowed us to
 interface, adapt or use parts of their codes:
   Stefan Grimme, W. Hujo, H. Kruse,             : VdW corrections, initial TS optimization,
                  C. Bannwarth                     DFT functionals, gCP, sTDA/sTD-DF
   Ed Valeev                                     : LibInt (2-el integral package), F12 methods
   Garnet Chan, S. Sharma, J. Yang, R. Olivares  : DMRG
   Ulf Ekstrom                                   : XCFun DFT Library
   Mihaly Kallay                                 : mrcc  (arbitrary order and MRCC methods)
   Andreas Klamt, Michael Diedenhofen            : otool_cosmo (COSMO solvation model)
   Jiri Pittner, Ondrej Demel                    : Mk-CCSD
   Frank Weinhold                                : gennbo (NPA and NBO analysis)
   Christopher J. Cramer and Donald G. Truhlar   : smd solvation model


 Your calculation uses the libint2 library for the computation of 2-el integrals
 For citations please refer to: http://libint.valeyev.net

 This ORCA versions uses:
   CBLAS   interface :  Fast vector & matrix operations
   LAPACKE interface :  Fast linear algebra routines
   SCALAPACK package :  Parallel linear algebra routines


Your calculation utilizes the basis: DKH-def2-TZVP
   Exponents from def2-TZVP [F. Weigend and R. Ahlrichs, Phys. Chem. Chem. Phys. 7, 3297 (2005)],
   recontracted for DKH2 by D. A. Pantazis.

Your calculation utilizes the auxiliary basis: SARC/J 
   decontracted def2/J up to Kr:
   F. Weigend, Phys. Chem. Chem. Phys. 8, 1057 (2006)
   and SARC auxiliary basis sets beyond Kr:
   D. A. Pantazis and F. Neese, J. Chem. Theory Comput. 5, 2229 (2009).
   D. A. Pantazis, X. Y. Chen, C. R. Landis and F. Neese, J. Chem. Theory Comput. 4, 908 (2008).
   D. A. Pantazis and F. Neese, Theor. Chem. Acc. 131, 1292 (2012).
   D. A. Pantazis and F. Neese, J. Chem. Theory Comput. 7, 677 (2011).

================================================================================
                                        WARNINGS
                       Please study these warnings very carefully!
================================================================================

Warning: TCutStore was < 0. Adjusted to Thresh (uncritical)

WARNING: In scalar relativistic gradient/hessian runs we need the one-center approximation
  ===> : %rel OneCenter is turned on

WARNING: The frozen-core approximation for MP2-gradient calculations is turned on by default.

WARNING: Geometry Optimization
  ===> : Switching off AutoStart
         For restart on a previous wavefunction, please use MOREAD

WARNING: Post HF methods need fully converged wavefunctions
  ===> : Setting SCFConvForced true
         You can overwrite this default with %scf ConvForced false 


INFO   : the flag for use of LIBINT has been found!

================================================================================
                                       INPUT FILE
================================================================================
NAME = /home/nikolayandreadi_2125/_scratch/MP2/NpOH3.inp
|  1> !Opt MP2 DKH-def2-TZVP DKH SARC/J SlowConv
|  2> 
|  3> %pal
|  4> nproc 20
|  5> end
|  6> 
|  7> %maxcore 31500
|  8> 
|  9> %basis
| 10> newgto Np "SARC-DKH-TZVP" end
| 11> end
| 12> 
| 13> %scf
| 14> MaxIter 5000
| 15> end
| 16> 
| 17> %method
| 18> Z_MaxIter 5000
| 19> end
| 20> 
| 21> * xyz 0 1
| 22>   O      2.177663   -0.348739    0.022977
| 23>   Np     0.669259   -1.751538    0.195770
| 24>   O     -0.669297   -1.397084   -1.300477
| 25>   O     -0.509248   -1.363830    1.826737
| 26>   H     -1.226334   -1.046996    2.376323
| 27>   H      2.750845    0.400081   -0.141143
| 28>   H     -1.360378   -1.084286   -1.884905
| 29> **                         ****END OF INPUT****
================================================================================

                       *****************************
                       * Geometry Optimization Run *
                       *****************************

Geometry optimization settings:
Update method            Update   .... BFGS
Choice of coordinates    CoordSys .... Redundant Internals
Initial Hessian          InHess   .... Almoef's Model

Convergence Tolerances:
Energy Change            TolE     ....  5.0000e-06 Eh
Max. Gradient            TolMAXG  ....  3.0000e-04 Eh/bohr
RMS Gradient             TolRMSG  ....  1.0000e-04 Eh/bohr
Max. Displacement        TolMAXD  ....  4.0000e-03 bohr
RMS Displacement         TolRMSD  ....  2.0000e-03 bohr

------------------------------------------------------------------------------
                        ORCA OPTIMIZATION COORDINATE SETUP
------------------------------------------------------------------------------

The optimization will be done in new redundant internal coordinates
Making redundant internal coordinates   ...  (new redundants) done
Evaluating the initial hessian          ...  (Almloef) done
Evaluating the coordinates              ...  done
Calculating the B-matrix                .... done
Calculating the G-matrix                .... done
Diagonalizing the G-matrix              .... done
The first mode is                       ....    3
The number of degrees of freedom        ....   15

    -----------------------------------------------------------------
                    Redundant Internal Coordinates


    -----------------------------------------------------------------
         Definition                    Initial Value    Approx d2E/dq
    -----------------------------------------------------------------
      1. B(Np  1,O   0)                  2.0671         0.156339   
      2. B(O   2,Np  1)                  2.0387         0.173571   
      3. B(O   3,Np  1)                  2.0492         0.166973   
      4. B(H   4,O   3)                  0.9574         0.524920   
      5. B(H   5,O   0)                  0.9572         0.525360   
      6. B(H   6,O   2)                  0.9576         0.524567   
      7. A(Np  1,O   0,H   5)          169.1725         0.313147   
      8. A(O   2,Np  1,O   3)           99.9996         0.312219   
      9. A(O   0,Np  1,O   3)          110.9649         0.306999   
     10. A(O   0,Np  1,O   2)          107.4443         0.308919   
     11. A(Np  1,O   2,H   6)          168.1163         0.318436   
     12. A(Np  1,O   3,H   4)          161.8468         0.316467   
     13. D(O   3,Np  1,O   0,H   5)    -83.9168         0.001803   
     14. D(O   2,Np  1,O   0,H   5)     24.4631         0.001803   
     15. D(H   6,O   2,Np  1,O   0)    -78.4241         0.001873   
     16. D(H   6,O   2,Np  1,O   3)     37.4398         0.001873   
     17. D(H   4,O   3,Np  1,O   2)    -17.2636         0.001845   
     18. D(H   4,O   3,Np  1,O   0)     95.9114         0.001845   
    -----------------------------------------------------------------

Number of atoms                         .... 7
Number of degrees of freedom            .... 18

         *************************************************************
         *                GEOMETRY OPTIMIZATION CYCLE   1            *
         *************************************************************
---------------------------------
CARTESIAN COORDINATES (ANGSTROEM)
---------------------------------
  O      2.177663   -0.348739    0.022977
  Np     0.669259   -1.751538    0.195770
  O     -0.669297   -1.397084   -1.300477
  O     -0.509248   -1.363830    1.826737
  H     -1.226334   -1.046996    2.376323
  H      2.750845    0.400081   -0.141143
  H     -1.360378   -1.084286   -1.884905

----------------------------
CARTESIAN COORDINATES (A.U.)
----------------------------
  NO LB      ZA    FRAG     MASS         X           Y           Z
   0 O     8.0000    0    15.999    4.115187   -0.659021    0.043420
   1 Np   93.0000    0   237.048    1.264716   -3.309927    0.369952
   2 O     8.0000    0    15.999   -1.264788   -2.640106   -2.457545
   3 O     8.0000    0    15.999   -0.962339   -2.577265    3.452033
   4 H     1.0000    0     1.008   -2.317435   -1.978536    4.490600
   5 H     1.0000    0     1.008    5.198344    0.756044   -0.266722
   6 H     1.0000    0     1.008   -2.570742   -2.049004   -3.561954

--------------------------------
INTERNAL COORDINATES (ANGSTROEM)
--------------------------------
 O      0   0   0     0.000000000000     0.00000000     0.00000000
 Np     1   0   0     2.067119997113     0.00000000     0.00000000
 O      2   1   0     2.038657619185   107.44434192     0.00000000
 O      2   1   3     2.049207065526   110.96489547   251.62008684
 H      4   2   1     0.957413644329   161.84676611    95.91144015
 H      1   2   3     0.957185651754   169.17251320    24.46313218
 H      3   2   1     0.957596796438   168.11634708   281.57586815

---------------------------
INTERNAL COORDINATES (A.U.)
---------------------------
 O      0   0   0     0.000000000000     0.00000000     0.00000000
 Np     1   0   0     3.906290680496     0.00000000     0.00000000
 O      2   1   0     3.852504581092   107.44434192     0.00000000
 O      2   1   3     3.872440145541   110.96489547   251.62008684
 H      4   2   1     1.809249584662   161.84676611    95.91144015
 H      1   2   3     1.808818741134   169.17251320    24.46313218
 H      3   2   1     1.809595691989   168.11634708   281.57586815

---------------------
BASIS SET INFORMATION
---------------------
There are 3 groups of distinct atoms

 Group   1 Type O   : 11s6p2d1f contracted to 6s3p2d1f pattern {611111/411/11/1}
 Group   2 Type Np  : 29s20p16d12f contracted to 21s13p10d7f pattern {911111111111111111111/8111111111111/7111111111/6111111}
 Group   3 Type H   : 5s1p contracted to 3s1p pattern {311/1}

Atom   0O    basis set group =>   1
Atom   1Np   basis set group =>   2
Atom   2O    basis set group =>   1
Atom   3O    basis set group =>   1
Atom   4H    basis set group =>   3
Atom   5H    basis set group =>   3
Atom   6H    basis set group =>   3

INFORMATION: There is an auxiliary basis set but the global RI flag is NOT set

-------------------------------
AUXILIARY BASIS SET INFORMATION
-------------------------------
There are 3 groups of distinct atoms

 Group   1 Type O   : 12s5p4d2f1g contracted to 12s5p4d2f1g pattern {111111111111/11111/1111/11/1}
 Group   2 Type Np  : 33s10p8d6f4g2h1i contracted to 33s10p8d6f4g2h1i pattern {111111111111111111111111111111111/1111111111/11111111/111111/1111/11/1}
 Group   3 Type H   : 5s2p1d contracted to 5s2p1d pattern {11111/11/1}

Atom   0O    basis set group =>   1
Atom   1Np   basis set group =>   2
Atom   2O    basis set group =>   1
Atom   3O    basis set group =>   1
Atom   4H    basis set group =>   3
Atom   5H    basis set group =>   3
Atom   6H    basis set group =>   3


           ************************************************************
           *        Program running with 20 parallel MPI-processes    *
           *              working on a common directory               *
           ************************************************************
------------------------------------------------------------------------------
                           ORCA GTO INTEGRAL CALCULATION
------------------------------------------------------------------------------

                         BASIS SET STATISTICS AND STARTUP INFO

 # of primitive gaussian shells          ...  155
 # of primitive gaussian functions       ...  415
 # of contracted shells                  ...   99
 # of contracted basis functions         ...  273
 Highest angular momentum                ...    3
 Maximum contraction depth               ...    9
 Integral package used                   ... LIBINT
 Integral threshhold            Thresh   ...  2.500e-11
 Primitive cut-off              TCut     ...  2.500e-12


------------------------------ INTEGRAL EVALUATION ----------------------------


 * One electron integrals 
 Pre-screening matrix                    ... done
 Shell pair data                         ... done (   0.001 sec)

------------------------------------------------------------------------------
                          ORCA RELATIVISTIC HAMILTONIAN
------------------------------------------------------------------------------

Relativistic Method            ... DKH
Order of DKH treatment         ...   2
Treatment of potential         ... V(e,N)
Eps parameter for DKH          ...   0.00000000010000
Nucleus model                  ... Point Nucleus
Speed of light used            ... 137.03598950000000


            ************************************************
            *        DOUGLAS-KROLL-HESS HAMILTONIAN        *
            *   Programmed by FN according to literature   *
            *        procedures. Special thanks to         *
            *       B.A. Hess, M. Reiher and A. Wolf       *
            *     University Erlangen-Nuernberg/Bonn       *
            ************************************************

Uncontracting the basis (first version)        ... done
Number of contracted basis functions           ...  273
Number of uncontracted basis functions         ...  415
Initializing the DKH file                      ... done
One center approximation for DKH is active
Finding unique atoms                      ... 3 atom types
 ATOMIC NUMBER   8
          ... doing integrals          ... Computing the DKH transformation
          ... Transforming V and pVp to p**2 space
          ... First transformation of V and pVp
          ... Second transformation of Veff
          ... Adding kinetic energy
          ... Back transformation of Veff to r-space
          ... Recontracting the H-matrix
          ... Computing the DKH correction to the H-matrix
          ... adding submatrics to 3 actual atoms
 ATOMIC NUMBER  93
          ... doing integrals          ... Computing the DKH transformation
          ... Transforming V and pVp to p**2 space
          ... First transformation of V and pVp
          ... Second transformation of Veff
          ... Adding kinetic energy
          ... Back transformation of Veff to r-space
          ... Recontracting the H-matrix
          ... Computing the DKH correction to the H-matrix
          ... adding submatrics to 1 actual atoms
 ATOMIC NUMBER   1
          ... doing integrals          ... Computing the DKH transformation
          ... Transforming V and pVp to p**2 space
          ... First transformation of V and pVp
          ... Second transformation of Veff
          ... Adding kinetic energy
          ... Back transformation of Veff to r-space
          ... Recontracting the H-matrix
          ... Computing the DKH correction to the H-matrix
          ... adding submatrics to 3 actual atoms
Storing DKH matrices                           ... done
Getting S**(-1/2)                              ... done
Reading the original H-matrix                  ... done
Adding DKH correction to the H-matrix          ... done
Storing the new modified H-matrix              ... done


           ************************************************************
           *        Program running with 20 parallel MPI-processes    *
           *              working on a common directory               *
           ************************************************************
-------------------------------------------------------------------------------
                                 ORCA SCF
-------------------------------------------------------------------------------

------------
SCF SETTINGS
------------
Hamiltonian:
 Ab initio Hamiltonian  Method          .... Hartree-Fock(GTOs)

Relativistic Settings:
 Scalar relativistic method             .... Douglas-Kroll-Hess
 Order of DKH procedure    Order        ....    2
 Mode of DKH-treatment                  .... V=V(e,N)
 Speed of light used       Velit        ....       137.035989
 Cutoff-constant           Eps          ....            1e-10 


General Settings:
 Integral files         IntName         .... /home/nikolayandreadi_2125/_scratch/MP2/NpOH3
 Hartree-Fock type      HFTyp           .... RHF
 Total Charge           Charge          ....    0
 Multiplicity           Mult            ....    1
 Number of Electrons    NEL             ....  120
 Basis Dimension        Dim             ....  273
 Nuclear Repulsion      ENuc            ....    676.0829616826 Eh

Convergence Acceleration:
 DIIS                   CNVDIIS         .... on
   Start iteration      DIISMaxIt       ....     0
   Startup error        DIISStart       ....  0.200000
   # of expansion vecs  DIISMaxEq       ....     5
   Bias factor          DIISBfac        ....   1.050
   Max. coefficient     DIISMaxC        ....  10.000
 Newton-Raphson         CNVNR           .... off
 SOSCF                  CNVSOSCF        .... off
 Level Shifting         CNVShift        .... on
   Level shift para.    LevelShift      ....    0.2500
   Turn off err/grad.   ShiftErr        ....    0.0000
 Zerner damping         CNVZerner       .... off
 Static damping         CNVDamp         .... on
   Fraction old density DampFac         ....    0.8500
   Max. Damping (<1)    DampMax         ....    0.9800
   Min. Damping (>=0)   DampMin         ....    0.0000
   Turn off err/grad.   DampErr         ....    0.0300
 Fernandez-Rico         CNVRico         .... off

SCF Procedure:
 Maximum # iterations   MaxIter         ....  5000
 SCF integral mode      SCFMode         .... Direct
   Integral package                     .... LIBINT
 Reset frequeny         DirectResetFreq ....    20
 Integral Threshold     Thresh          ....  2.500e-11 Eh
 Primitive CutOff       TCut            ....  2.500e-12 Eh

Convergence Tolerance:
 Convergence Check Mode ConvCheckMode   .... Total+1el-Energy
 Convergence forced     ConvForced      .... 1
 Energy Change          TolE            ....  1.000e-08 Eh
 1-El. energy change                    ....  1.000e-05 Eh
 DIIS Error             TolErr          ....  5.000e-07


Diagonalization of the overlap matrix:
Smallest eigenvalue                        ... 4.328e-04
Time for diagonalization                   ...    0.015 sec
Threshold for overlap eigenvalues          ... 1.000e-08
Number of eigenvalues below threshold      ... 0
Time for construction of square roots      ...    0.011 sec
Total time needed                          ...    0.027 sec

-------------------
DFT GRID GENERATION
-------------------

General Integration Accuracy     IntAcc      ...  4.340
Radial Grid Type                 RadialGrid  ... Gauss-Chebyshev
Angular Grid (max. acc.)         AngularGrid ... Lebedev-110
Angular grid pruning method      GridPruning ... 3 (G Style)
Weight generation scheme         WeightScheme... Becke
Basis function cutoff            BFCut       ...    1.0000e-11
Integration weight cutoff        WCut        ...    1.0000e-14
Grids for H and He will be reduced by one unit

# of grid points (after initial pruning)     ...  11474 (   0.0 sec)
# of grid points (after weights+screening)   ...  11253 (   0.0 sec)
nearest neighbour list constructed           ...    0.0 sec
Grid point re-assignment to atoms done       ...    0.0 sec
Grid point division into batches done        ...    0.0 sec
Reduced shell lists constructed in    0.0 sec

Total number of grid points                  ...    11253
Total number of batches                      ...      181
Average number of points per batch           ...       62
Average number of grid points per atom       ...     1608
Average number of shells per batch           ...    44.00 (44.44%)
Average number of basis functions per batch  ...   126.91 (46.49%)
Average number of large shells per batch     ...    34.82 (79.13%)
Average number of large basis fcns per batch ...   100.27 (79.01%)
Maximum spatial batch extension              ...  14.92, 19.63, 30.89 au
Average spatial batch extension              ...   0.28,  0.30,  0.39 au

Time for grid setup =    0.046 sec

------------------------------
INITIAL GUESS: MODEL POTENTIAL
------------------------------
Loading DKH relativistic densities                 ... done
Calculating cut-offs                               ... done
Setting up the integral package                    ... done
Initializing the effective Hamiltonian             ... done
Starting the Coulomb interaction                   ... done (   0.0 sec)
Reading the grid                                   ... done
Mapping shells                                     ... done
Starting the XC term evaluation                    ... done (   0.0 sec)
Transforming the Hamiltonian                       ... done (   0.0 sec)
Diagonalizing the Hamiltonian                      ... done (   0.0 sec)
Back transforming the eigenvectors                 ... done (   0.0 sec)
Now organizing SCF variables                       ... done
                      ------------------
                      INITIAL GUESS DONE (   0.2 sec)
                      ------------------
--------------
SCF ITERATIONS
--------------
ITER       Energy         Delta-E        Max-DP      RMS-DP      [F,P]     Damp
               ***  Starting incremental Fock matrix formation  ***
  0 -28961.9337544566   0.000000000000 0.02750373  0.00068039  8.2949290 0.8500
  1 -28962.0620096043  -0.128255147778 0.02390761  0.00061315  7.0562347 0.8500
                               ***Turning on DIIS***
  2 -28962.1550952015  -0.093085597196 0.01901327  0.00048639  6.0024584 0.8500
  3 -28960.4200385355   1.735056665988 0.02587918  0.00036639  5.1060016 0.8500
  4 -28960.4558276299  -0.035789094316 0.02696599  0.00032361  4.3423047 0.8500
  5 -28961.2118718660  -0.756044236103 0.02335652  0.00028764  3.6918242 0.8500
  6 -28961.4925836666  -0.280711800606 0.02015005  0.00025585  3.1384127 0.8500
  7 -28961.8338634412  -0.341279774595 0.01691902  0.00022684  2.6678220 0.8500
  8 -28961.6563839464   0.177479494731 0.01528755  0.00020365  2.2678097 0.8500
  9 -28961.5617093283   0.094674618114 0.01378941  0.00018218  1.9277693 0.8500
 10 -28961.6454797003  -0.083770371930 0.01258194  0.00016187  1.6387101 0.8500
 11 -28961.7761045769  -0.130624876612 0.01137701  0.00014356  1.3929938 0.8500
 12 -28961.8853436002  -0.109239023295 0.01022905  0.00012764  1.1841228 0.8500
 13 -28961.9392030542  -0.053859454019 0.00929594  0.00011412  1.0065719 0.8500
 14 -28961.9751810233  -0.035977969103 0.00850324  0.00010243  0.8556429 0.8500
 15 -28962.0188350590  -0.043654035740 0.00776500  0.00009211  0.7273438 0.8500
 16 -28962.0687564984  -0.049921439364 0.00706513  0.00008299  0.6182821 0.8500
 17 -28962.1160666204  -0.047310121969 0.00642000  0.00007498  0.5255736 0.8500
 18 -28962.1557360076  -0.039669387217 0.00584175  0.00006798  0.4467663 0.8500
 19 -28962.1893260712  -0.033590063649 0.00532574  0.00006186  0.3797756 0.8500
               *** Restarting incremental Fock matrix formation ***
                                   *** Resetting DIIS ***
 20 -28962.5345031844  -0.345177113173 0.00266267  0.00003777  0.3228296 0.8500
 21 -28962.3965275456   0.137975638838 0.00290144  0.00003605  0.2746085 0.8500
 22 -28962.3489040295   0.047623516053 0.00344723  0.00003802  0.2335320 0.8500
 23 -28962.3739311118  -0.025027082334 0.00341652  0.00003781  0.1985462 0.8500
 24 -28962.3877371802  -0.013806068317 0.00324146  0.00003657  0.1687818 0.8500
 25 -28962.4061754743  -0.018438294119 0.00302549  0.00003498  0.1434721 0.8500
 26 -28962.3977127416   0.008462732716 0.00289212  0.00003373  0.1219583 0.8500
 27 -28962.3925915617   0.005121179878 0.00276060  0.00003243  0.1036702 0.8500
 28 -28962.3973735524  -0.004781990690 0.00260465  0.00003098  0.0881240 0.8500
 29 -28962.4060125136  -0.008638961186 0.00243953  0.00002948  0.0749091 0.8500
 30 -28962.4146953920  -0.008682878473 0.00227928  0.00002801  0.0636757 0.8500
 31 -28962.4214075854  -0.006712193343 0.00213157  0.00002661  0.0541269 0.8500
 32 -28962.4274614383  -0.006053852925 0.00199474  0.00002527  0.0460099 0.8500
 33 -28962.4338896299  -0.006428191617 0.00186588  0.00002398  0.0391101 0.8500
 34 -28962.4406156711  -0.006726041222 0.00174433  0.00002274  0.0332448 0.8500
 35 -28962.4472129599  -0.006597288742 0.01087073  0.00014376  0.0282591 0.0000
 36 -28962.5560737216  -0.108860761760 0.00214515  0.00002871  0.0011027 0.0000
 37 -28962.5408955981   0.015178123573 0.00265683  0.00004097  0.0010323 0.0000
 38 -28962.4758558782   0.065039719815 0.00489017  0.00006811  0.0008742 0.0000
 39 -28962.5164072817  -0.040551403414 0.00162288  0.00003092  0.0007544 0.0000
               *** Restarting incremental Fock matrix formation ***
                                   *** Resetting DIIS ***
 40 -28962.5570487151  -0.040641433479 0.00070865  0.00001108  0.0004924 0.0000
 41 -28962.5570323967   0.000016318420 0.00059793  0.00000996  0.0004494 0.0000
 42 -28962.5374644370   0.019567959705 0.00130345  0.00002020  0.0004441 0.0000
 43 -28962.5354220581   0.002042378888 0.00109224  0.00002276  0.0004652 0.0000
 44 -28962.5127556279   0.022666430181 0.00217702  0.00003502  0.0004346 0.0000
 45 -28962.5391460502  -0.026390422285 0.00046533  0.00000781  0.0004265 0.0000
 46 -28962.5374613071   0.001684743180 0.00106944  0.00001732  0.0003983 0.0000
 47 -28962.5388253529  -0.001364045893 0.00035068  0.00000889  0.0003945 0.0000
 48 -28962.5460890432  -0.007263690295 0.00030639  0.00000805  0.0003805 0.0000
 49 -28962.5482756593  -0.002186616020 0.00031756  0.00000752  0.0003754 0.0000
 50 -28962.5505200729  -0.002244413667 0.00036446  0.00000790  0.0003809 0.0000
 51 -28962.5500939113   0.000426161580 0.00047521  0.00001002  0.0003865 0.0000
 52 -28962.5534343198  -0.003340408446 0.00041027  0.00000842  0.0003952 0.0000
 53 -28962.5535767099  -0.000142390145 0.00044580  0.00000893  0.0003946 0.0000
 54 -28962.5542600475  -0.000683337596 0.00059317  0.00001169  0.0003955 0.0000
 55 -28962.5567773329  -0.002517285346 0.00018861  0.00000377  0.0004016 0.0000
 56 -28962.5548756584   0.001901674492 0.00067998  0.00001315  0.0003813 0.0000
 57 -28962.5566491193  -0.001773460932 0.00033365  0.00000644  0.0003986 0.0000
 58 -28962.5557069253   0.000942194023 0.00079865  0.00001519  0.0003829 0.0000
 59 -28962.5568008879  -0.001093962634 0.00020403  0.00000389  0.0003998 0.0000
               *** Restarting incremental Fock matrix formation ***
                                   *** Resetting DIIS ***
 60 -28962.5571450238  -0.000344135853 0.00012204  0.00000234  0.0003677 0.0000
 61 -28962.5572071750  -0.000062151234 0.00013366  0.00000250  0.0003704 0.0000
 62 -28962.5571714239   0.000035751113 0.00014998  0.00000281  0.0003715 0.0000
 63 -28962.5572182775  -0.000046853576 0.00016610  0.00000309  0.0003705 0.0000
 64 -28962.5571780571   0.000040220362 0.00018583  0.00000347  0.0003708 0.0000
 65 -28962.5571584231   0.000019634026 0.00014845  0.00000279  0.0003695 0.0000
 66 -28962.5571551713   0.000003251800 0.00013032  0.00000246  0.0003702 0.0000
 67 -28962.5571533452   0.000001826116 0.00011277  0.00000214  0.0003706 0.0000
 68 -28962.5571654442  -0.000012099052 0.00009768  0.00000186  0.0003718 0.0000
 69 -28962.5571719727  -0.000006528477 0.00009158  0.00000174  0.0003725 0.0000
 70 -28962.5571730031  -0.000001030421 0.00009800  0.00000185  0.0003733 0.0000
 71 -28962.5571693592   0.000003643960 0.00010653  0.00000201  0.0003735 0.0000
 72 -28962.5571644319   0.000004927249 0.00011305  0.00000213  0.0003737 0.0000
 73 -28962.5571635574   0.000000874563 0.00011528  0.00000218  0.0003736 0.0000
 74 -28962.5571673674  -0.000003810004 0.00011244  0.00000213  0.0003737 0.0000
 75 -28962.5571749231  -0.000007555715 0.00010624  0.00000201  0.0003738 0.0000
 76 -28962.5571839974  -0.000009074283 0.00009999  0.00000190  0.0003741 0.0000
 77 -28962.5571908951  -0.000006897713 0.00009607  0.00000183  0.0003745 0.0000
 78 -28962.5571945904  -0.000003695332 0.00009519  0.00000181  0.0003750 0.0000
 79 -28962.5571948877  -0.000000297288 0.00009653  0.00000184  0.0003753 0.0000
               *** Restarting incremental Fock matrix formation ***
                                   *** Resetting DIIS ***
 80 -28962.5571635353   0.000031352432 0.00012093  0.00000229  0.0003756 0.0000
 81 -28962.5571647429  -0.000001207649 0.00012037  0.00000228  0.0003753 0.0000
 82 -28962.5571710836  -0.000006340677 0.00011611  0.00000221  0.0003753 0.0000
 83 -28962.5571871858  -0.000016102244 0.00010477  0.00000200  0.0003754 0.0000
 84 -28962.5572203945  -0.000033208657 0.00008269  0.00000159  0.0003760 0.0000
 85 -28962.5572355084  -0.000015113950 0.00007646  0.00000147  0.0003769 0.0000
 86 -28962.5572317981   0.000003710295 0.00008173  0.00000157  0.0003776 0.0000
 87 -28962.5572196925   0.000012105644 0.00009020  0.00000172  0.0003780 0.0000
 88 -28962.5572086553   0.000011037198 0.00009668  0.00000185  0.0003781 0.0000
 89 -28962.5572046979   0.000003957437 0.00009863  0.00000189  0.0003782 0.0000
 90 -28962.5572100912  -0.000005393314 0.00009525  0.00000183  0.0003784 0.0000
 91 -28962.5572199257  -0.000009834530 0.00008979  0.00000173  0.0003787 0.0000
 92 -28962.5572284474  -0.000008521678 0.00008583  0.00000165  0.0003791 0.0000
 93 -28962.5572322441  -0.000003796722 0.00008492  0.00000163  0.0003796 0.0000
 94 -28962.5572314135   0.000000830616 0.00008640  0.00000166  0.0003800 0.0000
 95 -28962.5572287745   0.000002638968 0.00008840  0.00000170  0.0003803 0.0000
 96 -28962.5572275313   0.000001243228 0.00008931  0.00000172  0.0003806 0.0000
 97 -28962.5572290126  -0.000001481287 0.00008865  0.00000171  0.0003809 0.0000
 98 -28962.5572324939  -0.000003481309 0.00008704  0.00000168  0.0003812 0.0000
 99 -28962.5572362695  -0.000003775564 0.00008550  0.00000165  0.0003816 0.0000
               *** Restarting incremental Fock matrix formation ***
                                   *** Resetting DIIS ***
100 -28962.5571785491   0.000057720350 0.00012072  0.00000231  0.0003820 0.0000
101 -28962.5571808768  -0.000002327721 0.00011928  0.00000229  0.0003816 0.0000
102 -28962.5571944625  -0.000013585650 0.00011100  0.00000214  0.0003816 0.0000
103 -28962.5572258761  -0.000031413638 0.00009134  0.00000178  0.0003819 0.0000
104 -28962.5572851819  -0.000059305778 0.00005812  0.00000115  0.0003828 0.0000
105 -28962.5572945224  -0.000009340471 0.00006083  0.00000119  0.0003842 0.0000
106 -28962.5572686580   0.000025864345 0.00007713  0.00000149  0.0003850 0.0000
107 -28962.5572426965   0.000025961475 0.00008977  0.00000174  0.0003851 0.0000
108 -28962.5572309133   0.000011783246 0.00009397  0.00000182  0.0003851 0.0000
109 -28962.5572344001  -0.000003486806 0.00009025  0.00000176  0.0003853 0.0000
110 -28962.5572492104  -0.000014810317 0.00008191  0.00000160  0.0003857 0.0000
111 -28962.5572623574  -0.000013147022 0.00007627  0.00000149  0.0003863 0.0000
112 -28962.5572658918  -0.000003534333 0.00007641  0.00000149  0.0003869 0.0000
113 -28962.5572613592   0.000004532587 0.00008002  0.00000156  0.0003874 0.0000
114 -28962.5572553312   0.000006028025 0.00008329  0.00000162  0.0003877 0.0000
115 -28962.5572530331   0.000002298038 0.00008406  0.00000164  0.0003880 0.0000
116 -28962.5572555273  -0.000002494173 0.00008246  0.00000161  0.0003884 0.0000
117 -28962.5572603409  -0.000004813603 0.00008016  0.00000157  0.0003888 0.0000
118 -28962.5572642072  -0.000003866262 0.00007883  0.00000155  0.0003893 0.0000
119 -28962.5572654986  -0.000001291442 0.00007896  0.00000155  0.0003898 0.0000
               *** Restarting incremental Fock matrix formation ***
                                   *** Resetting DIIS ***
120 -28962.5571928644   0.000072634182 0.00012117  0.00000235  0.0003902 0.0000
121 -28962.5571960465  -0.000003182035 0.00011900  0.00000232  0.0003897 0.0000
122 -28962.5572145292  -0.000018482755 0.00010775  0.00000212  0.0003898 0.0000
123 -28962.5572548647  -0.000040335497 0.00008262  0.00000164  0.0003903 0.0000
124 -28962.5573269396  -0.000072074923 0.00004401  0.00000090  0.0003915 0.0000
125 -28962.5573259064   0.000001033248 0.00005634  0.00000112  0.0003931 0.0000
126 -28962.5572858192   0.000040087216 0.00007838  0.00000154  0.0003937 0.0000
127 -28962.5572576140   0.000028205191 0.00009030  0.00000177  0.0003937 0.0000
128 -28962.5572511831   0.000006430844 0.00009038  0.00000178  0.0003938 0.0000
129 -28962.5572613944  -0.000010211283 0.00008232  0.00000163  0.0003941 0.0000
130 -28962.5572800844  -0.000018690007 0.00007287  0.00000145  0.0003947 0.0000
131 -28962.5572902052  -0.000010120770 0.00007043  0.00000140  0.0003955 0.0000
132 -28962.5572870513   0.000003153931 0.00007446  0.00000148  0.0003961 0.0000
133 -28962.5572787881   0.000008263123 0.00007930  0.00000157  0.0003965 0.0000
134 -28962.5572739572   0.000004830956 0.00008111  0.00000161  0.0003969 0.0000
135 -28962.5572752758  -0.000001318629 0.00007960  0.00000158  0.0003973 0.0000
136 -28962.5572804701  -0.000005194313 0.00007681  0.00000153  0.0003978 0.0000
137 -28962.5572851121  -0.000004642028 0.00007516  0.00000150  0.0003983 0.0000
138 -28962.5572865417  -0.000001429584 0.00007546  0.00000150  0.0003989 0.0000
139 -28962.5572854699   0.000001071850 0.00007672  0.00000153  0.0003994 0.0000
               *** Restarting incremental Fock matrix formation ***
                                   *** Resetting DIIS ***
140 -28962.5572071296   0.000078340294 0.00012200  0.00000241  0.0003999 0.0000
141 -28962.5572111004  -0.000003970825 0.00011922  0.00000236  0.0003994 0.0000
142 -28962.5572332580  -0.000022157597 0.00010583  0.00000211  0.0003995 0.0000
143 -28962.5572797584  -0.000046500383 0.00007677  0.00000155  0.0004002 0.0000
144 -28962.5573589383  -0.000079179859 0.00003517  0.00000074  0.0004016 0.0000
145 -28962.5573475823   0.000011355965 0.00005628  0.00000112  0.0004034 0.0000
146 -28962.5572991181   0.000048464193 0.00008129  0.00000161  0.0004039 0.0000
147 -28962.5572725145   0.000026603597 0.00009137  0.00000181  0.0004038 0.0000
148 -28962.5572714071   0.000001107426 0.00008783  0.00000175  0.0004039 0.0000
149 -28962.5572860925  -0.000014685455 0.00007705  0.00000154  0.0004044 0.0000
150 -28962.5573055325  -0.000019439987 0.00006843  0.00000137  0.0004053 0.0000
151 -28962.5573112740  -0.000005741465 0.00006957  0.00000139  0.0004061 0.0000
152 -28962.5573036338   0.000007640185 0.00007590  0.00000151  0.0004067 0.0000
153 -28962.5572950740   0.000008559822 0.00008033  0.00000159  0.0004071 0.0000
154 -28962.5572929648   0.000002109129 0.00008032  0.00000159  0.0004075 0.0000
155 -28962.5572969999  -0.000004035010 0.00007742  0.00000154  0.0004080 0.0000
156 -28962.5573028400  -0.000005840193 0.00007482  0.00000149  0.0004087 0.0000
157 -28962.5573058718  -0.000003031768 0.00007458  0.00000148  0.0004093 0.0000
158 -28962.5573052525   0.000000619264 0.00007611  0.00000151  0.0004099 0.0000
159 -28962.5573035145   0.000001738088 0.00007756  0.00000154  0.0004104 0.0000
               *** Restarting incremental Fock matrix formation ***
                                   *** Resetting DIIS ***
160 -28962.5572216862   0.000081828235 0.00012649  0.00000247  0.0004110 0.0000
161 -28962.5572263392  -0.000004652942 0.00012304  0.00000242  0.0004105 0.0000
162 -28962.5572514777  -0.000025138525 0.00010724  0.00000212  0.0004107 0.0000
163 -28962.5573027800  -0.000051302333 0.00007419  0.00000149  0.0004115 0.0000
164 -28962.5573866876  -0.000083907529 0.00002971  0.00000063  0.0004131 0.0000
165 -28962.5573663849   0.000020302610 0.00005873  0.00000116  0.0004151 0.0000
166 -28962.5573127540   0.000053630945 0.00008574  0.00000168  0.0004155 0.0000
167 -28962.5572885909   0.000024163048 0.00009387  0.00000184  0.0004154 0.0000
168 -28962.5572918382  -0.000003247224 0.00008711  0.00000172  0.0004156 0.0000
169 -28962.5573094610  -0.000017622875 0.00007433  0.00000148  0.0004163 0.0000
170 -28962.5573282602  -0.000018799183 0.00006712  0.00000133  0.0004173 0.0000
171 -28962.5573299969  -0.000001736626 0.00007129  0.00000141  0.0004182 0.0000
172 -28962.5573198394   0.000010157502 0.00007872  0.00000155  0.0004188 0.0000
173 -28962.5573123662   0.000007473122 0.00008205  0.00000161  0.0004192 0.0000
174 -28962.5573128035  -0.000000437314 0.00008034  0.00000158  0.0004197 0.0000
175 -28962.5573184223  -0.000005618735 0.00007668  0.00000151  0.0004203 0.0000
176 -28962.5573238425  -0.000005420181 0.00007478  0.00000147  0.0004210 0.0000
177 -28962.5573251816  -0.000001339151 0.00007575  0.00000149  0.0004217 0.0000
178 -28962.5573234224   0.000001759170 0.00007779  0.00000153  0.0004224 0.0000
179 -28962.5573219641   0.000001458313 0.00007886  0.00000155  0.0004230 0.0000
               *** Restarting incremental Fock matrix formation ***
                                   *** Resetting DIIS ***
180 -28962.5572367645   0.000085199583 0.00013139  0.00000255  0.0004235 0.0000
181 -28962.5572420221  -0.000005257560 0.00012733  0.00000249  0.0004231 0.0000
182 -28962.5572697825  -0.000027760387 0.00010929  0.00000215  0.0004234 0.0000
183 -28962.5573252281  -0.000055445631 0.00007262  0.00000145  0.0004244 0.0000
184 -28962.5574129171  -0.000087688957 0.00002578  0.00000055  0.0004262 0.0000
185 -28962.5573848939   0.000028023176 0.00006186  0.00000121  0.0004283 0.0000
186 -28962.5573276799   0.000057214031 0.00009022  0.00000175  0.0004286 0.0000
187 -28962.5573059223   0.000021757573 0.00009644  0.00000188  0.0004285 0.0000
188 -28962.5573127150  -0.000006792743 0.00008688  0.00000171  0.0004288 0.0000
189 -28962.5573323958  -0.000019680789 0.00007269  0.00000144  0.0004296 0.0000
190 -28962.5573500253  -0.000017629449 0.00006723  0.00000132  0.0004308 0.0000
191 -28962.5573484384   0.000001586875 0.00007390  0.00000145  0.0004317 0.0000
192 -28962.5573369704   0.000011468044 0.00008174  0.00000160  0.0004323 0.0000
193 -28962.5573310019   0.000005968432 0.00008380  0.00000164  0.0004328 0.0000
194 -28962.5573335203  -0.000002518340 0.00008071  0.00000158  0.0004333 0.0000
195 -28962.5573399700  -0.000006449725 0.00007680  0.00000151  0.0004341 0.0000
196 -28962.5573445571  -0.000004587062 0.00007581  0.00000148  0.0004349 0.0000
197 -28962.5573445078   0.000000049291 0.00007772  0.00000152  0.0004357 0.0000
198 -28962.5573422742   0.000002233595 0.00007987  0.00000156  0.0004363 0.0000
199 -28962.5573414572   0.000000816937 0.00008040  0.00000157  0.0004370 0.0000
               *** Restarting incremental Fock matrix formation ***
                                   *** Resetting DIIS ***
200 -28962.5572525443   0.000088912948 0.00013673  0.00000264  0.0004377 0.0000
201 -28962.5572583697  -0.000005825419 0.00013207  0.00000256  0.0004372 0.0000
202 -28962.5572885989  -0.000030229214 0.00011188  0.00000219  0.0004376 0.0000
203 -28962.5573479378  -0.000059338843 0.00007178  0.00000143  0.0004388 0.0000
204 -28962.5574391258  -0.000091188067 0.00002278  0.00000049  0.0004408 0.0000
205 -28962.5574041962   0.000034929602 0.00006539  0.00000127  0.0004430 0.0000
206 -28962.5573441256   0.000060070677 0.00009480  0.00000183  0.0004432 0.0000
207 -28962.5573245359   0.000019589694 0.00009919  0.00000192  0.0004431 0.0000
208 -28962.5573343344  -0.000009798532 0.00008711  0.00000170  0.0004435 0.0000
209 -28962.5573555993  -0.000021264874 0.00007189  0.00000141  0.0004445 0.0000
210 -28962.5573719018  -0.000016302496 0.00006829  0.00000134  0.0004458 0.0000
211 -28962.5573675796   0.000004322177 0.00007704  0.00000150  0.0004468 0.0000
212 -28962.5573554756   0.000012103970 0.00008490  0.00000165  0.0004474 0.0000
213 -28962.5573510756   0.000004400044 0.00008568  0.00000166  0.0004479 0.0000
214 -28962.5573552745  -0.000004198919 0.00008148  0.00000159  0.0004486 0.0000
215 -28962.5573621093  -0.000006834824 0.00007763  0.00000151  0.0004494 0.0000
216 -28962.5573657486  -0.000003639248 0.00007759  0.00000151  0.0004503 0.0000
217 -28962.5573646378   0.000001110711 0.00008019  0.00000156  0.0004511 0.0000
218 -28962.5573623313   0.000002306515 0.00008221  0.00000159  0.0004519 0.0000
219 -28962.5573622551   0.000000076216 0.00008217  0.00000159  0.0004526 0.0000
               *** Restarting incremental Fock matrix formation ***
                                   *** Resetting DIIS ***
220 -28962.5572691828   0.000093072318 0.00014251  0.00000273  0.0004533 0.0000
221 -28962.5572755683  -0.000006385490 0.00013727  0.00000265  0.0004529 0.0000
222 -28962.5573082503  -0.000032682059 0.00011494  0.00000223  0.0004534 0.0000
223 -28962.5573714778  -0.000063227424 0.00007146  0.00000141  0.0004547 0.0000
224 -28962.5574662245  -0.000094746738 0.00002038  0.00000045  0.0004569 0.0000
225 -28962.5574248413   0.000041383246 0.00006922  0.00000133  0.0004593 0.0000
226 -28962.5573621812   0.000062660107 0.00009956  0.00000191  0.0004594 0.0000
227 -28962.5573445188   0.000017662340 0.00010219  0.00000197  0.0004593 0.0000
228 -28962.5573569996  -0.000012480763 0.00008777  0.00000171  0.0004598 0.0000
229 -28962.5573796083  -0.000022608732 0.00007172  0.00000140  0.0004610 0.0000
230 -28962.5573945713  -0.000014963032 0.00007002  0.00000136  0.0004624 0.0000
231 -28962.5573879381   0.000006633283 0.00008054  0.00000155  0.0004634 0.0000
232 -28962.5573755699   0.000012368124 0.00008822  0.00000170  0.0004640 0.0000
233 -28962.5573726955   0.000002874454 0.00008774  0.00000169  0.0004646 0.0000
234 -28962.5573782887  -0.000005593265 0.00008264  0.00000160  0.0004654 0.0000
235 -28962.5573852496  -0.000006960887 0.00007904  0.00000153  0.0004663 0.0000
236 -28962.5573879411  -0.000002691442 0.00007993  0.00000154  0.0004673 0.0000
237 -28962.5573860346   0.000001906432 0.00008303  0.00000160  0.0004682 0.0000
238 -28962.5573838892   0.000002145487 0.00008478  0.00000164  0.0004689 0.0000
239 -28962.5573845557  -0.000000666514 0.00008421  0.00000163  0.0004697 0.0000
               *** Restarting incremental Fock matrix formation ***
                                   *** Resetting DIIS ***
240 -28962.5572868285   0.000097727214 0.00014876  0.00000283  0.0004706 0.0000
241 -28962.5572937876  -0.000006959162 0.00014293  0.00000274  0.0004702 0.0000
242 -28962.5573290028  -0.000035215209 0.00011842  0.00000229  0.0004708 0.0000
243 -28962.5573962773  -0.000067274479 0.00007153  0.00000141  0.0004723 0.0000
244 -28962.5574948367  -0.000098559398 0.00001837  0.00000041  0.0004747 0.0000
245 -28962.5574471692   0.000047667527 0.00007332  0.00000140  0.0004772 0.0000
246 -28962.5573819314   0.000065237775 0.00010454  0.00000199  0.0004772 0.0000
247 -28962.5573659999   0.000015931495 0.00010545  0.00000202  0.0004771 0.0000
248 -28962.5573809921  -0.000014992198 0.00008878  0.00000172  0.0004778 0.0000
249 -28962.5574048422  -0.000023850091 0.00007204  0.00000140  0.0004791 0.0000
250 -28962.5574184997  -0.000013657536 0.00007226  0.00000140  0.0004806 0.0000
251 -28962.5574098406   0.000008659099 0.00008436  0.00000162  0.0004817 0.0000
252 -28962.5573974139   0.000012426775 0.00009172  0.00000176  0.0004823 0.0000
253 -28962.5573960093   0.000001404518 0.00009001  0.00000173  0.0004829 0.0000
254 -28962.5574028045  -0.000006795130 0.00008416  0.00000162  0.0004838 0.0000
255 -28962.5574097357  -0.000006931277 0.00008093  0.00000156  0.0004849 0.0000
256 -28962.5574115152  -0.000001779408 0.00008271  0.00000159  0.0004860 0.0000
257 -28962.5574090090   0.000002506113 0.00008616  0.00000165  0.0004869 0.0000
258 -28962.5574071656   0.000001843477 0.00008756  0.00000168  0.0004877 0.0000
259 -28962.5574085493  -0.000001383687 0.00008650  0.00000166  0.0004886 0.0000
               *** Restarting incremental Fock matrix formation ***
                                   *** Resetting DIIS ***
260 -28962.5573056295   0.000102919708 0.00015548  0.00000294  0.0004895 0.0000
261 -28962.5573131928  -0.000007563220 0.00014904  0.00000284  0.0004891 0.0000
262 -28962.5573510913  -0.000037898564 0.00012230  0.00000235  0.0004898 0.0000
263 -28962.5574226853  -0.000071593975 0.00007190  0.00000141  0.0004915 0.0000
264 -28962.5575254299  -0.000102744641 0.00001661  0.00000038  0.0004941 0.0000
265 -28962.5574714329   0.000053997061 0.00007769  0.00000147  0.0004967 0.0000
266 -28962.5574034809   0.000067952016 0.00010979  0.00000208  0.0004967 0.0000
267 -28962.5573891390   0.000014341822 0.00010899  0.00000208  0.0004966 0.0000
268 -28962.5574065811  -0.000017442049 0.00009011  0.00000174  0.0004974 0.0000
269 -28962.5574316525  -0.000025071444 0.00007277  0.00000141  0.0004989 0.0000
270 -28962.5574440409  -0.000012388402 0.00007493  0.00000144  0.0005005 0.0000
271 -28962.5574335346   0.000010506297 0.00008846  0.00000169  0.0005016 0.0000
272 -28962.5574211689   0.000012365763 0.00009541  0.00000182  0.0005022 0.0000
273 -28962.5574211928  -0.000000023909 0.00009250  0.00000177  0.0005029 0.0000
274 -28962.5574290660  -0.000007873208 0.00008600  0.00000165  0.0005039 0.0000
275 -28962.5574358696  -0.000006803573 0.00008324  0.00000159  0.0005051 0.0000
276 -28962.5574367756  -0.000000906024 0.00008586  0.00000164  0.0005063 0.0000
277 -28962.5574338142   0.000002961377 0.00008955  0.00000171  0.0005072 0.0000
278 -28962.5574323644   0.000001449800 0.00009055  0.00000173  0.0005081 0.0000
279 -28962.5574344379  -0.000002073506 0.00008905  0.00000170  0.0005091 0.0000
               *** Restarting incremental Fock matrix formation ***
                                   *** Resetting DIIS ***
280 -28962.5573257399   0.000108697983 0.00016268  0.00000306  0.0005101 0.0000
281 -28962.5573339495  -0.000008209521 0.00015561  0.00000295  0.0005097 0.0000
282 -28962.5573747380  -0.000040788560 0.00012654  0.00000242  0.0005105 0.0000
283 -28962.5574510125  -0.000076274478 0.00007253  0.00000142  0.0005124 0.0000
284 -28962.5575583952  -0.000107382690 0.00001503  0.00000035  0.0005152 0.0000
285 -28962.5574978580   0.000060537186 0.00008233  0.00000155  0.0005180 0.0000
286 -28962.5574269603   0.000070897728 0.00011533  0.00000218  0.0005179 0.0000
287 -28962.5574141141   0.000012846198 0.00011280  0.00000214  0.0005178 0.0000
288 -28962.5574340245  -0.000019910414 0.00009171  0.00000176  0.0005187 0.0000
289 -28962.5574603479  -0.000026323414 0.00007384  0.00000142  0.0005204 0.0000
290 -28962.5574714906  -0.000011142733 0.00007798  0.00000149  0.0005222 0.0000
291 -28962.5574592390   0.000012251614 0.00009285  0.00000176  0.0005232 0.0000
292 -28962.5574470056   0.000012233395 0.00009931  0.00000188  0.0005239 0.0000
293 -28962.5574484411  -0.000001435503 0.00009521  0.00000181  0.0005247 0.0000
294 -28962.5574573193  -0.000008878171 0.00008815  0.00000168  0.0005258 0.0000
295 -28962.5574639267  -0.000006607374 0.00008592  0.00000164  0.0005272 0.0000
296 -28962.5574639902  -0.000000063508 0.00008936  0.00000170  0.0005284 0.0000
297 -28962.5574606820   0.000003308229 0.00009321  0.00000177  0.0005294 0.0000
298 -28962.5574596923   0.000000989654 0.00009377  0.00000178  0.0005303 0.0000
299 -28962.5574624343  -0.000002741963 0.00009185  0.00000175  0.0005314 0.0000
               *** Restarting incremental Fock matrix formation ***
                                   *** Resetting DIIS ***
300 -28962.5573473233   0.000115110954 0.00017039  0.00000319  0.0005325 0.0000
301 -28962.5573562334  -0.000008910120 0.00016266  0.00000307  0.0005321 0.0000
302 -28962.5574001647  -0.000043931224 0.00013115  0.00000250  0.0005330 0.0000
303 -28962.5574815496  -0.000081384944 0.00007336  0.00000143  0.0005351 0.0000
304 -28962.5575940853  -0.000112535650 0.00001357  0.00000033  0.0005382 0.0000
305 -28962.5575266659   0.000067419394 0.00008726  0.00000163  0.0005411 0.0000
306 -28962.5574525279   0.000074137923 0.00012120  0.00000227  0.0005409 0.0000
307 -28962.5574411271   0.000011400814 0.00011690  0.00000221  0.0005408 0.0000
308 -28962.5574635827  -0.000022455606 0.00009357  0.00000179  0.0005418 0.0000
309 -28962.5574912227  -0.000027639948 0.00007520  0.00000144  0.0005437 0.0000
310 -28962.5575011266  -0.000009903964 0.00008138  0.00000155  0.0005456 0.0000
311 -28962.5574871767   0.000013949906 0.00009752  0.00000184  0.0005467 0.0000
312 -28962.5574751249   0.000012051856 0.00010343  0.00000195  0.0005474 0.0000
313 -28962.5574779789  -0.000002854045 0.00009814  0.00000186  0.0005483 0.0000
314 -28962.5574878197  -0.000009840736 0.00009058  0.00000172  0.0005496 0.0000
315 -28962.5574941771  -0.000006357459 0.00008896  0.00000169  0.0005510 0.0000
316 -28962.5574934197   0.000000757398 0.00009319  0.00000176  0.0005523 0.0000
317 -28962.5574898487   0.000003571007 0.00009711  0.00000184  0.0005534 0.0000
318 -28962.5574893742   0.000000474556 0.00009720  0.00000184  0.0005544 0.0000
319 -28962.5574927710  -0.000003396868 0.00009492  0.00000180  0.0005556 0.0000
               *** Restarting incremental Fock matrix formation ***
                                   *** Resetting DIIS ***
320 -28962.5573705570   0.000122213991 0.00017861  0.00000333  0.0005568 0.0000
321 -28962.5573802302  -0.000009673135 0.00017019  0.00000320  0.0005563 0.0000
322 -28962.5574275969  -0.000047366695 0.00013612  0.00000258  0.0005573 0.0000
323 -28962.5575145844  -0.000086987551 0.00007439  0.00000145  0.0005596 0.0000
324 -28962.5576328387  -0.000118254240 0.00001239  0.00000031  0.0005630 0.0000
325 -28962.5575580900   0.000074748608 0.00009249  0.00000172  0.0005661 0.0000
326 -28962.5574803716   0.000077718410 0.00012741  0.00000238  0.0005657 0.0000
327 -28962.5574703978   0.000009973875 0.00012129  0.00000229  0.0005657 0.0000
328 -28962.5574955202  -0.000025122445 0.00009567  0.00000182  0.0005669 0.0000
329 -28962.5575245655  -0.000029045306 0.00007684  0.00000147  0.0005690 0.0000
330 -28962.5575332200  -0.000008654533 0.00008510  0.00000161  0.0005710 0.0000
331 -28962.5575175801   0.000015639940 0.00010248  0.00000193  0.0005721 0.0000
332 -28962.5575057462   0.000011833898 0.00010778  0.00000203  0.0005728 0.0000
333 -28962.5575100459  -0.000004299694 0.00010129  0.00000191  0.0005738 0.0000
334 -28962.5575208307  -0.000010784748 0.00009330  0.00000177  0.0005752 0.0000
335 -28962.5575268953  -0.000006064693 0.00009233  0.00000175  0.0005768 0.0000
336 -28962.5575253284   0.000001566903 0.00009732  0.00000183  0.0005781 0.0000
337 -28962.5575215628   0.000003765676 0.00010127  0.00000191  0.0005793 0.0000
338 -28962.5575216513  -0.000000088556 0.00010087  0.00000190  0.0005804 0.0000
339 -28962.5575256981  -0.000004046735 0.00009824  0.00000185  0.0005817 0.0000
               *** Restarting incremental Fock matrix formation ***
                                   *** Resetting DIIS ***
340 -28962.5573956355   0.000130062541 0.00018735  0.00000348  0.0005830 0.0000
341 -28962.5574061439  -0.000010508418 0.00017820  0.00000334  0.0005825 0.0000
342 -28962.5574572746  -0.000051130628 0.00014145  0.00000268  0.0005836 0.0000
343 -28962.5575504093  -0.000093134757 0.00007560  0.00000147  0.0005862 0.0000
344 -28962.5576749959  -0.000124586575 0.00001134  0.00000029  0.0005898 0.0000
345 -28962.5575923877   0.000082608218 0.00009802  0.00000182  0.0005931 0.0000
346 -28962.5575107097   0.000081678023 0.00013397  0.00000249  0.0005926 0.0000
347 -28962.5575021689   0.000008540763 0.00012597  0.00000237  0.0005926 0.0000
348 -28962.5575301167  -0.000027947852 0.00009801  0.00000186  0.0005939 0.0000
349 -28962.5575606742  -0.000030557469 0.00007876  0.00000150  0.0005962 0.0000
350 -28962.5575680557  -0.000007381481 0.00008916  0.00000168  0.0005983 0.0000
351 -28962.5575507036   0.000017352086 0.00010773  0.00000202  0.0005995 0.0000
352 -28962.5575391147   0.000011588902 0.00011239  0.00000211  0.0006002 0.0000
353 -28962.5575449023  -0.000005787602 0.00010469  0.00000197  0.0006013 0.0000
354 -28962.5575566310  -0.000011728654 0.00009631  0.00000182  0.0006029 0.0000
355 -28962.5575623645  -0.000005733586 0.00009604  0.00000181  0.0006046 0.0000
356 -28962.5575599945   0.000002370045 0.00010177  0.00000191  0.0006060 0.0000
357 -28962.5575560903   0.000003904155 0.00010569  0.00000198  0.0006072 0.0000
358 -28962.5575567883  -0.000000697983 0.00010478  0.00000197  0.0006084 0.0000
359 -28962.5575614845  -0.000004696205 0.00010184  0.00000192  0.0006098 0.0000
               *** Restarting incremental Fock matrix formation ***
                                   *** Resetting DIIS ***
360 -28962.5574227735   0.000138710984 0.00019664  0.00000364  0.0006113 0.0000
361 -28962.5574341973  -0.000011423774 0.00018672  0.00000348  0.0006107 0.0000
362 -28962.5574894526  -0.000055255325 0.00014716  0.00000278  0.0006119 0.0000
363 -28962.5575893267  -0.000099874047 0.00007699  0.00000150  0.0006147 0.0000
364 -28962.5577209060  -0.000131579327 0.00001061  0.00000028  0.0006186 0.0000
365 -28962.5576298375   0.000091068530 0.00010385  0.00000192  0.0006221 0.0000
366 -28962.5575437826   0.000086054861 0.00014089  0.00000261  0.0006215 0.0000
367 -28962.5575366984   0.000007084192 0.00013097  0.00000245  0.0006215 0.0000
368 -28962.5575676577  -0.000030959243 0.00010060  0.00000191  0.0006230 0.0000
369 -28962.5575998511  -0.000032193406 0.00008094  0.00000154  0.0006255 0.0000
370 -28962.5576059302  -0.000006079121 0.00009353  0.00000175  0.0006278 0.0000
371 -28962.5575868217   0.000019108465 0.00011328  0.00000211  0.0006290 0.0000
372 -28962.5575754977   0.000011324057 0.00011725  0.00000219  0.0006297 0.0000
373 -28962.5575828279  -0.000007330251 0.00010834  0.00000204  0.0006310 0.0000
374 -28962.5575955136  -0.000012685690 0.00009960  0.00000188  0.0006327 0.0000
375 -28962.5576008840  -0.000005370355 0.00010007  0.00000188  0.0006345 0.0000
376 -28962.5575977123   0.000003171681 0.00010652  0.00000199  0.0006360 0.0000
377 -28962.5575937174   0.000003994897 0.00011037  0.00000207  0.0006373 0.0000
378 -28962.5575950672  -0.000001349752 0.00010894  0.00000204  0.0006386 0.0000
379 -28962.5576004192  -0.000005352093 0.00010572  0.00000198  0.0006401 0.0000
               *** Restarting incremental Fock matrix formation ***
                                   *** Resetting DIIS ***
380 -28962.5574522097   0.000148209561 0.00020646  0.00000381  0.0006417 0.0000
381 -28962.5574646360  -0.000012426273 0.00019575  0.00000364  0.0006410 0.0000
382 -28962.5575244029  -0.000059766931 0.00015325  0.00000288  0.0006424 0.0000
383 -28962.5576316545  -0.000107251610 0.00007859  0.00000153  0.0006454 0.0000
384 -28962.5577709361  -0.000139281568 0.00000994  0.00000026  0.0006496 0.0000
385 -28962.5576707544   0.000100181704 0.00010999  0.00000202  0.0006534 0.0000
386 -28962.5575798722   0.000090882200 0.00014819  0.00000274  0.0006526 0.0000
387 -28962.5575742744   0.000005597813 0.00013628  0.00000255  0.0006526 0.0000
388 -28962.5576084530  -0.000034178625 0.00010346  0.00000196  0.0006543 0.0000
389 -28962.5576424268  -0.000033973844 0.00008339  0.00000158  0.0006570 0.0000
390 -28962.5576471725  -0.000004745667 0.00009821  0.00000183  0.0006594 0.0000
391 -28962.5576262441   0.000020928357 0.00011913  0.00000222  0.0006606 0.0000
392 -28962.5576151944   0.000011049695 0.00012239  0.00000228  0.0006614 0.0000
393 -28962.5576241273  -0.000008932853 0.00011226  0.00000210  0.0006628 0.0000
394 -28962.5576377955  -0.000013668177 0.00010321  0.00000194  0.0006647 0.0000
395 -28962.5576427806  -0.000004985141 0.00010444  0.00000196  0.0006666 0.0000
396 -28962.5576388065   0.000003974113 0.00011158  0.00000208  0.0006682 0.0000
397 -28962.5576347593   0.000004047146 0.00011532  0.00000215  0.0006695 0.0000
398 -28962.5576368002  -0.000002040892 0.00011337  0.00000212  0.0006709 0.0000
399 -28962.5576428173  -0.000006017071 0.00010990  0.00000206  0.0006726 0.0000
               *** Restarting incremental Fock matrix formation ***
                                   *** Resetting DIIS ***
400 -28962.5574842103   0.000158607039 0.00021683  0.00000399  0.0006743 0.0000
401 -28962.5574977331  -0.000013522826 0.00020529  0.00000381  0.0006735 0.0000
402 -28962.5575624216  -0.000064688495 0.00015974  0.00000300  0.0006750 0.0000
403 -28962.5576777237  -0.000115302151 0.00008042  0.00000156  0.0006783 0.0000
404 -28962.5578254696  -0.000147745832 0.00000932  0.00000025  0.0006829 0.0000
405 -28962.5577154883   0.000109981302 0.00011641  0.00000214  0.0006869 0.0000
406 -28962.5576192877   0.000096200623 0.00015585  0.00000288  0.0006860 0.0000
407 -28962.5576152035   0.000004084148 0.00014194  0.00000265  0.0006859 0.0000
408 -28962.5576528268  -0.000037623278 0.00010662  0.00000201  0.0006878 0.0000
409 -28962.5576887429  -0.000035916080 0.00008613  0.00000163  0.0006908 0.0000
410 -28962.5576921354  -0.000003392568 0.00010319  0.00000192  0.0006933 0.0000
411 -28962.5576693097   0.000022825738 0.00012528  0.00000232  0.0006946 0.0000
412 -28962.5576585278   0.000010781932 0.00012781  0.00000238  0.0006954 0.0000
413 -28962.5576691256  -0.000010597818 0.00011647  0.00000218  0.0006969 0.0000
414 -28962.5576838163  -0.000014690770 0.00010713  0.00000201  0.0006989 0.0000
415 -28962.5576884070  -0.000004590689 0.00010913  0.00000204  0.0007010 0.0000
416 -28962.5576836305   0.000004776499 0.00011695  0.00000218  0.0007027 0.0000
417 -28962.5576795598   0.000004070764 0.00012057  0.00000225  0.0007041 0.0000
418 -28962.5576823229  -0.000002763172 0.00011809  0.00000220  0.0007056 0.0000
419 -28962.5576890195  -0.000006696551 0.00011439  0.00000214  0.0007074 0.0000
               *** Restarting incremental Fock matrix formation ***
                                   *** Resetting DIIS ***
420 -28962.5575190726   0.000169946848 0.00022775  0.00000418  0.0007092 0.0000
421 -28962.5575337921  -0.000014719426 0.00021535  0.00000399  0.0007083 0.0000
422 -28962.5576038267  -0.000070034654 0.00016665  0.00000312  0.0007100 0.0000
423 -28962.5577278884  -0.000124061658 0.00008251  0.00000160  0.0007136 0.0000
424 -28962.5578849167  -0.000157028306 0.00000935  0.00000025  0.0007185 0.0000
425 -28962.5577644345   0.000120482237 0.00012310  0.00000225  0.0007227 0.0000
426 -28962.5576623850   0.000102049456 0.00016388  0.00000302  0.0007216 0.0000
427 -28962.5576598255   0.000002559547 0.00014797  0.00000276  0.0007216 0.0000
428 -28962.5577011254  -0.000041299980 0.00011011  0.00000208  0.0007237 0.0000
429 -28962.5577391726  -0.000038047205 0.00008918  0.00000169  0.0007269 0.0000
430 -28962.5577412125  -0.000002039873 0.00010846  0.00000202  0.0007296 0.0000
431 -28962.5577163964   0.000024816116 0.00013172  0.00000244  0.0007309 0.0000
432 -28962.5577058548   0.000010541607 0.00013355  0.00000248  0.0007318 0.0000
433 -28962.5577181739  -0.000012319117 0.00012102  0.00000226  0.0007334 0.0000
434 -28962.5577339409  -0.000015767037 0.00011139  0.00000209  0.0007356 0.0000
435 -28962.5577381476  -0.000004206660 0.00011414  0.00000213  0.0007378 0.0000
436 -28962.5577325712   0.000005576392 0.00012262  0.00000228  0.0007395 0.0000
437 -28962.5577284916   0.000004079651 0.00012611  0.00000235  0.0007410 0.0000
438 -28962.5577320019  -0.000003510384 0.00012313  0.00000230  0.0007427 0.0000
439 -28962.5577393964  -0.000007394425 0.00011922  0.00000223  0.0007446 0.0000
               *** Restarting incremental Fock matrix formation ***
                                   *** Resetting DIIS ***
440 -28962.5575571300   0.000182266351 0.00023920  0.00000439  0.0007465 0.0000
441 -28962.5575731494  -0.000016019349 0.00022593  0.00000418  0.0007456 0.0000
442 -28962.5576489604  -0.000075811025 0.00017401  0.00000326  0.0007473 0.0000
443 -28962.5577825078  -0.000133547437 0.00008492  0.00000165  0.0007512 0.0000
444 -28962.5579496976  -0.000167189799 0.00000978  0.00000024  0.0007565 0.0000
445 -28962.5578180323   0.000131665347 0.00013002  0.00000238  0.0007611 0.0000
446 -28962.5577095580   0.000108474316 0.00017227  0.00000317  0.0007598 0.0000
447 -28962.5577085015   0.000001056473 0.00015440  0.00000287  0.0007597 0.0000
448 -28962.5577537115  -0.000045209963 0.00011399  0.00000215  0.0007620 0.0000
449 -28962.5577941081  -0.000040396670 0.00009255  0.00000175  0.0007655 0.0000
450 -28962.5577948308  -0.000000722644 0.00011399  0.00000212  0.0007684 0.0000
451 -28962.5577679205   0.000026910293 0.00013844  0.00000256  0.0007696 0.0000
452 -28962.5577575561   0.000010364383 0.00013962  0.00000259  0.0007706 0.0000
453 -28962.5577716401  -0.000014084027 0.00012593  0.00000235  0.0007723 0.0000
454 -28962.5577885540  -0.000016913906 0.00011601  0.00000217  0.0007747 0.0000
455 -28962.5577924157  -0.000003861634 0.00011948  0.00000223  0.0007771 0.0000
456 -28962.5577860489   0.000006366798 0.00012859  0.00000239  0.0007789 0.0000
457 -28962.5577819602   0.000004088644 0.00013196  0.00000245  0.0007805 0.0000
458 -28962.5577862271  -0.000004266840 0.00012851  0.00000240  0.0007822 0.0000
459 -28962.5577943424  -0.000008115334 0.00012440  0.00000232  0.0007843 0.0000
               *** Restarting incremental Fock matrix formation ***
                                   *** Resetting DIIS ***
460 -28962.5575987560   0.000195586410 0.00025117  0.00000461  0.0007864 0.0000
461 -28962.5576161801  -0.000017424096 0.00023700  0.00000438  0.0007853 0.0000
462 -28962.5576981906  -0.000082010527 0.00018185  0.00000341  0.0007871 0.0000
463 -28962.5578419589  -0.000143768335 0.00008771  0.00000171  0.0007913 0.0000
464 -28962.5580202531  -0.000178294147 0.00001027  0.00000024  0.0007971 0.0000
465 -28962.5578767741   0.000143478970 0.00013713  0.00000251  0.0008019 0.0000
466 -28962.5577612520   0.000115522103 0.00018099  0.00000333  0.0008004 0.0000
467 -28962.5577616234  -0.000000371430 0.00016127  0.00000300  0.0008004 0.0000
468 -28962.5578109647  -0.000049341226 0.00011831  0.00000223  0.0008028 0.0000
469 -28962.5578539658  -0.000043001142 0.00009628  0.00000182  0.0008066 0.0000
470 -28962.5578534619   0.000000503940 0.00011977  0.00000222  0.0008097 0.0000
471 -28962.5578243440   0.000029117851 0.00014543  0.00000269  0.0008110 0.0000
472 -28962.5578140491   0.000010294963 0.00014606  0.00000271  0.0008119 0.0000
473 -28962.5578299157  -0.000015866637 0.00013126  0.00000245  0.0008138 0.0000
474 -28962.5578480682  -0.000018152532 0.00012102  0.00000227  0.0008164 0.0000
475 -28962.5578516635  -0.000003595316 0.00012514  0.00000233  0.0008189 0.0000
476 -28962.5578445249   0.000007138689 0.00013485  0.00000251  0.0008208 0.0000
477 -28962.5578404031   0.000004121739 0.00013814  0.00000257  0.0008225 0.0000
478 -28962.5578454157  -0.000005012629 0.00013427  0.00000250  0.0008243 0.0000
479 -28962.5578542800  -0.000008864256 0.00012996  0.00000243  0.0008265 0.0000
               *** Restarting incremental Fock matrix formation ***
                                   *** Resetting DIIS ***
480 -28962.5576443690   0.000209911002 0.00026361  0.00000484  0.0008288 0.0000
481 -28962.5576632998  -0.000018930819 0.00024857  0.00000460  0.0008275 0.0000
482 -28962.5577519052  -0.000088605397 0.00019020  0.00000356  0.0008295 0.0000
483 -28962.5579066125  -0.000154707301 0.00009199  0.00000177  0.0008340 0.0000
484 -28962.5580970201  -0.000190407547 0.00001085  0.00000025  0.0008402 0.0000
485 -28962.5579412023   0.000155817717 0.00014436  0.00000264  0.0008454 0.0000
486 -28962.5578179610   0.000123241334 0.00019001  0.00000350  0.0008437 0.0000
487 -28962.5578196051  -0.000001644104 0.00016862  0.00000314  0.0008436 0.0000
488 -28962.5578732706  -0.000053665488 0.00012371  0.00000233  0.0008462 0.0000
489 -28962.5579191765  -0.000045905854 0.00010116  0.00000190  0.0008502 0.0000
490 -28962.5579176158   0.000001560671 0.00012582  0.00000234  0.0008535 0.0000
491 -28962.5578861704   0.000031445354 0.00015267  0.00000283  0.0008549 0.0000
492 -28962.5578757738   0.000010396583 0.00015303  0.00000284  0.0008559 0.0000
493 -28962.5578934017  -0.000017627870 0.00013769  0.00000257  0.0008579 0.0000
494 -28962.5579129073  -0.000019505584 0.00012726  0.00000237  0.0008606 0.0000
495 -28962.5579163673  -0.000003460042 0.00013183  0.00000245  0.0008633 0.0000
496 -28962.5579084927   0.000007874656 0.00014207  0.00000263  0.0008653 0.0000
497 -28962.5579042856   0.000004207068 0.00014550  0.00000269  0.0008671 0.0000
498 -28962.5579100044  -0.000005718819 0.00014150  0.00000262  0.0008691 0.0000
499 -28962.5579196480  -0.000009643609 0.00013715  0.00000254  0.0008714 0.0000
               *** Restarting incremental Fock matrix formation ***
                                   *** Resetting DIIS ***
500 -28962.5576944388   0.000225209249 0.00027721  0.00000508  0.0008738 0.0000
501 -28962.5577149744  -0.000020535615 0.00026224  0.00000483  0.0008723 0.0000
502 -28962.5578105169  -0.000095542480 0.00020146  0.00000374  0.0008744 0.0000
503 -28962.5579768398  -0.000166322872 0.00009757  0.00000185  0.0008793 0.0000
504 -28962.5581804303  -0.000203590549 0.00001153  0.00000026  0.0008859 0.0000
505 -28962.5580119218   0.000168508530 0.00015273  0.00000277  0.0008915 0.0000
506 -28962.5578802446   0.000131677221 0.00020115  0.00000367  0.0008895 0.0000
507 -28962.5578828903  -0.000002645760 0.00017906  0.00000329  0.0008894 0.0000
508 -28962.5579410186  -0.000058128324 0.00013153  0.00000244  0.0008922 0.0000
509 -28962.5579901814  -0.000049162740 0.00010764  0.00000199  0.0008965 0.0000
510 -28962.5579878456   0.000002335812 0.00013430  0.00000246  0.0009001 0.0000
511 -28962.5579539613   0.000033884233 0.00016273  0.00000297  0.0009014 0.0000
512 -28962.5579432100   0.000010751377 0.00016313  0.00000298  0.0009025 0.0000
513 -28962.5579625180  -0.000019308005 0.00014664  0.00000269  0.0009046 0.0000
514 -28962.5579835144  -0.000020996442 0.00013558  0.00000249  0.0009075 0.0000
515 -28962.5579870419  -0.000003527472 0.00014061  0.00000257  0.0009103 0.0000
516 -28962.5579784933   0.000008548574 0.00015158  0.00000276  0.0009125 0.0000
517 -28962.5579741131   0.000004380217 0.00015518  0.00000283  0.0009143 0.0000
518 -28962.5579804588  -0.000006345679 0.00015084  0.00000275  0.0009164 0.0000
519 -28962.5579909109  -0.000010452120 0.00014622  0.00000267  0.0009189 0.0000
               *** Restarting incremental Fock matrix formation ***
                                   *** Resetting DIIS ***
520 -28962.5577494921   0.000241418762 0.00029571  0.00000533  0.0009214 0.0000
521 -28962.5577717162  -0.000022224074 0.00027974  0.00000507  0.0009197 0.0000
522 -28962.5578744512  -0.000102734997 0.00021490  0.00000392  0.0009220 0.0000
523 -28962.5580529773  -0.000178526116 0.00010414  0.00000195  0.0009271 0.0000
524 -28962.5582708733  -0.000217895988 0.00001234  0.00000027  0.0009343 0.0000
525 -28962.5580895902   0.000181283143 0.00016289  0.00000291  0.0009403 0.0000
526 -28962.5579487235   0.000140866610 0.00021456  0.00000386  0.0009381 0.0000
527 -28962.5579519420  -0.000003218487 0.00019109  0.00000346  0.0009379 0.0000
528 -28962.5580145842  -0.000062642168 0.00014047  0.00000256  0.0009408 0.0000
529 -28962.5580674086  -0.000052824435 0.00011495  0.00000209  0.0009455 0.0000
530 -28962.5580647318   0.000002676796 0.00014327  0.00000258  0.0009492 0.0000
531 -28962.5580283153   0.000036416539 0.00017361  0.00000312  0.0009506 0.0000
532 -28962.5580168485   0.000011466836 0.00017413  0.00000314  0.0009517 0.0000
533 -28962.5580376669  -0.000020818465 0.00015662  0.00000283  0.0009539 0.0000
534 -28962.5580603112  -0.000022644283 0.00014482  0.00000261  0.0009570 0.0000
535 -28962.5580641988  -0.000003887602 0.00015010  0.00000270  0.0009600 0.0000
536 -28962.5580550830   0.000009115829 0.00016177  0.00000290  0.0009623 0.0000
537 -28962.5580504036   0.000004679368 0.00016568  0.00000297  0.0009642 0.0000
538 -28962.5580572390  -0.000006835420 0.00016113  0.00000289  0.0009664 0.0000
539 -28962.5580685202  -0.000011281114 0.00015621  0.00000280  0.0009690 0.0000
               *** Restarting incremental Fock matrix formation ***
                                   *** Resetting DIIS ***
540 -28962.5578101193   0.000258400865 0.00031532  0.00000560  0.0009717 0.0000
541 -28962.5578340961  -0.000023976772 0.00029839  0.00000532  0.0009697 0.0000
542 -28962.5579441446  -0.000110048579 0.00022962  0.00000413  0.0009720 0.0000
543 -28962.5581353189  -0.000191174222 0.00011191  0.00000206  0.0009775 0.0000
544 -28962.5583686714  -0.000233352588 0.00001330  0.00000029  0.0009852 0.0000
545 -28962.5581749224   0.000193749074 0.00017329  0.00000305  0.0009917 0.0000
546 -28962.5580240971   0.000150825272 0.00022870  0.00000405  0.0009892 0.0000
547 -28962.5580272466  -0.000003149529 0.00020433  0.00000364  0.0009889 0.0000
548 -28962.5580943151  -0.000067068479 0.00015076  0.00000271  0.0009920 0.0000
549 -28962.5581512590  -0.000056943936 0.00012325  0.00000221  0.0009969 0.0000
550 -28962.5581488816   0.000002377405 0.00015273  0.00000271  0.0010009 0.0000
551 -28962.5581098968   0.000038984857 0.00018507  0.00000328  0.0010024 0.0000
552 -28962.5580972250   0.000012671793 0.00018613  0.00000330  0.0010035 0.0000
553 -28962.5581192521  -0.000022027121 0.00016783  0.00000298  0.0010058 0.0000
554 -28962.5581437058  -0.000024453657 0.00015512  0.00000276  0.0010091 0.0000
555 -28962.5581483600  -0.000004654205 0.00016036  0.00000284  0.0010122 0.0000
556 -28962.5581388558   0.000009504147 0.00017268  0.00000305  0.0010146 0.0000
557 -28962.5581337113   0.000005144564 0.00017708  0.00000313  0.0010166 0.0000
558 -28962.5581408237  -0.000007112423 0.00017249  0.00000305  0.0010189 0.0000
559 -28962.5581529297  -0.000012106051 0.00016726  0.00000296  0.0010216 0.0000
               *** Restarting incremental Fock matrix formation ***
                                   *** Resetting DIIS ***
560 -28962.5578769822   0.000275947514 0.00033600  0.00000587  0.0010244 0.0000
561 -28962.5579027436  -0.000025761386 0.00031820  0.00000559  0.0010222 0.0000
562 -28962.5580200381  -0.000117294443 0.00024574  0.00000435  0.0010246 0.0000
563 -28962.5582240725  -0.000204034492 0.00012121  0.00000219  0.0010304 0.0000
564 -28962.5584740224  -0.000249949870 0.00001446  0.00000032  0.0010386 0.0000
565 -28962.5582686781   0.000205344306 0.00018382  0.00000319  0.0010456 0.0000
566 -28962.5581071451   0.000161533058 0.00024350  0.00000425  0.0010429 0.0000
567 -28962.5581093047  -0.000002159602 0.00021893  0.00000384  0.0010424 0.0000
568 -28962.5581804996  -0.000071194958 0.00016272  0.00000288  0.0010456 0.0000
569 -28962.5582420517  -0.000061552095 0.00013277  0.00000235  0.0010508 0.0000
570 -28962.5582408875   0.000001164157 0.00016268  0.00000284  0.0010551 0.0000
571 -28962.5581994104   0.000041477117 0.00019710  0.00000344  0.0010567 0.0000
572 -28962.5581848969   0.000014513542 0.00019921  0.00000348  0.0010577 0.0000
573 -28962.5582076460  -0.000022749075 0.00018046  0.00000316  0.0010601 0.0000
574 -28962.5582340459  -0.000026399895 0.00016670  0.00000292  0.0010635 0.0000
575 -28962.5582400086  -0.000005962727 0.00017149  0.00000299  0.0010669 0.0000
576 -28962.5582304081   0.000009600473 0.00018435  0.00000321  0.0010694 0.0000
577 -28962.5582246056   0.000005802533 0.00018946  0.00000330  0.0010715 0.0000
578 -28962.5582316796  -0.000007074032 0.00018507  0.00000323  0.0010738 0.0000
579 -28962.5582445526  -0.000012872970 0.00017953  0.00000313  0.0010766 0.0000
               *** Restarting incremental Fock matrix formation ***
                                   *** Resetting DIIS ***
580 -28962.5579508227   0.000293729907 0.00035771  0.00000616  0.0010796 0.0000
581 -28962.5579783523  -0.000027529604 0.00033916  0.00000587  0.0010770 0.0000
582 -28962.5581025568  -0.000124204489 0.00026345  0.00000460  0.0010794 0.0000
583 -28962.5583193224  -0.000216765671 0.00013241  0.00000236  0.0010855 0.0000
584 -28962.5585869146  -0.000267592164 0.00001587  0.00000037  0.0010942 0.0000
585 -28962.5583716396   0.000215274969 0.00019428  0.00000332  0.0011018 0.0000
586 -28962.5581987511   0.000172888514 0.00025885  0.00000445  0.0010989 0.0000
587 -28962.5581986391   0.000000111995 0.00023504  0.00000407  0.0010982 0.0000
588 -28962.5582733455  -0.000074706368 0.00017670  0.00000308  0.0011015 0.0000
589 -28962.5583399797  -0.000066634202 0.00014384  0.00000250  0.0011069 0.0000
590 -28962.5583412910  -0.000001311259 0.00017313  0.00000298  0.0011115 0.0000
591 -28962.5582976038   0.000043687105 0.00020962  0.00000360  0.0011132 0.0000
592 -28962.5582804597   0.000017144128 0.00021344  0.00000367  0.0011143 0.0000
593 -28962.5583031803  -0.000022720549 0.00019476  0.00000336  0.0011166 0.0000
594 -28962.5583315758  -0.000028395534 0.00017982  0.00000310  0.0011201 0.0000
595 -28962.5583395353  -0.000007959545 0.00018365  0.00000316  0.0011237 0.0000
596 -28962.5583303076   0.000009227773 0.00019681  0.00000338  0.0011263 0.0000
597 -28962.5583236612   0.000006646384 0.00020289  0.00000348  0.0011285 0.0000
598 -28962.5583302549  -0.000006593662 0.00019903  0.00000342  0.0011309 0.0000
599 -28962.5583437354  -0.000013480530 0.00019325  0.00000332  0.0011338 0.0000
               *** Restarting incremental Fock matrix formation ***
                                   *** Resetting DIIS ***
600 -28962.5580324724   0.000311263029 0.00038033  0.00000646  0.0011368 0.0000
601 -28962.5580616889  -0.000029216546 0.00036123  0.00000617  0.0011338 0.0000
602 -28962.5581921014  -0.000130412544 0.00028294  0.00000486  0.0011363 0.0000
603 -28962.5584209673  -0.000228865822 0.00014601  0.00000256  0.0011426 0.0000
604 -28962.5587070106  -0.000286043371 0.00001931  0.00000044  0.0011518 0.0000
605 -28962.5584845635   0.000222447106 0.00020446  0.00000345  0.0011600 0.0000
606 -28962.5582999057   0.000184657849 0.00027458  0.00000465  0.0011570 0.0000
607 -28962.5582957980   0.000004107729 0.00025280  0.00000431  0.0011561 0.0000
608 -28962.5583729333  -0.000077135337 0.00019315  0.00000332  0.0011593 0.0000
609 -28962.5584450187  -0.000072085422 0.00015691  0.00000269  0.0011649 0.0000
610 -28962.5584504886  -0.000005469890 0.00018420  0.00000313  0.0011698 0.0000
611 -28962.5584052398   0.000045248813 0.00022253  0.00000377  0.0011717 0.0000
612 -28962.5583845576   0.000020682222 0.00022887  0.00000388  0.0011727 0.0000
613 -28962.5584061417  -0.000021584143 0.00021100  0.00000359  0.0011750 0.0000
614 -28962.5584363846  -0.000030242914 0.00019487  0.00000332  0.0011786 0.0000
615 -28962.5584471539  -0.000010769265 0.00019709  0.00000334  0.0011823 0.0000
616 -28962.5584390304   0.000008123447 0.00021015  0.00000356  0.0011851 0.0000
617 -28962.5584314392   0.000007591236 0.00021742  0.00000368  0.0011873 0.0000
618 -28962.5584369703  -0.000005531099 0.00021455  0.00000363  0.0011898 0.0000
619 -28962.5584507242  -0.000013753866 0.00020869  0.00000353  0.0011927 0.0000
               *** Restarting incremental Fock matrix formation ***
                                   *** Resetting DIIS ***
620 -28962.5581228659   0.000327858321 0.00040371  0.00000676  0.0011958 0.0000
621 -28962.5581535957  -0.000030729861 0.00038432  0.00000647  0.0011924 0.0000
622 -28962.5582890287  -0.000135432972 0.00030440  0.00000516  0.0011948 0.0000
623 -28962.5585286389  -0.000239610261 0.00016267  0.00000281  0.0012013 0.0000
624 -28962.5588334669  -0.000304827950 0.00002596  0.00000055  0.0012109 0.0000
625 -28962.5586080892   0.000225377695 0.00021412  0.00000356  0.0012199 0.0000
626 -28962.5584117234   0.000196365800 0.00029043  0.00000485  0.0012167 0.0000
627 -28962.5584013666   0.000010356805 0.00027231  0.00000458  0.0012155 0.0000
628 -28962.5584791774  -0.000077810830 0.00021261  0.00000360  0.0012186 0.0000
629 -28962.5585567935  -0.000077616096 0.00017267  0.00000292  0.0012243 0.0000
630 -28962.5585685681  -0.000011774613 0.00019613  0.00000329  0.0012295 0.0000
631 -28962.5585230167   0.000045551391 0.00023574  0.00000394  0.0012316 0.0000
632 -28962.5584978886   0.000025128164 0.00024547  0.00000411  0.0012327 0.0000
633 -28962.5585167734  -0.000018884810 0.00022946  0.00000385  0.0012348 0.0000
634 -28962.5585483364  -0.000031563039 0.00021235  0.00000356  0.0012384 0.0000
635 -28962.5585627656  -0.000014429126 0.00021225  0.00000355  0.0012421 0.0000
636 -28962.5585568369   0.000005928618 0.00022455  0.00000375  0.0012452 0.0000
637 -28962.5585484299   0.000008407013 0.00023311  0.00000389  0.0012475 0.0000
638 -28962.5585522041  -0.000003774207 0.00023178  0.00000387  0.0012499 0.0000
639 -28962.5585656269  -0.000013422723 0.00022621  0.00000378  0.0012528 0.0000
               *** Restarting incremental Fock matrix formation ***
                                   *** Resetting DIIS ***
640 -28962.5582230579   0.000342568914 0.00042761  0.00000707  0.0012559 0.0000
641 -28962.5582550044  -0.000031946500 0.00040829  0.00000678  0.0012521 0.0000
642 -28962.5583936305  -0.000138626026 0.00032807  0.00000548  0.0012544 0.0000
643 -28962.5586416004  -0.000247969980 0.00018319  0.00000311  0.0012609 0.0000
644 -28962.5589646503  -0.000323049815 0.00003591  0.00000072  0.0012709 0.0000
645 -28962.5587425639   0.000222086401 0.00022306  0.00000367  0.0012806 0.0000
[...]
      f+1     :     3.216834
      f-1     :     2.916047
      f+2     :     2.079861
      f-2     :     2.110417
      f+3     :     2.965111
      f-3     :     2.308135
  2 O s       :     3.904496  s :     3.904496
      pz      :     1.520053  p :     4.947940
      px      :     1.623424
      py      :     1.804462
      dz2     :     0.009126  d :     0.047078
      dxz     :     0.013065
      dyz     :     0.008518
      dx2y2   :     0.008199
      dxy     :     0.008171
      f0      :     0.000706  f :     0.005632
      f+1     :     0.001368
      f-1     :     0.000630
      f+2     :     0.000978
      f-2     :     0.000925
      f+3     :     0.000514
      f-3     :     0.000512
  3 O s       :     3.904477  s :     3.904477
      pz      :     1.470768  p :     4.947949
      px      :     1.683433
      py      :     1.793747
      dz2     :     0.010010  d :     0.047077
      dxz     :     0.012222
      dyz     :     0.009148
      dx2y2   :     0.007719
      dxy     :     0.007978
      f0      :     0.000779  f :     0.005632
      f+1     :     0.001399
      f-1     :     0.000791
      f+2     :     0.000814
      f-2     :     0.000927
      f+3     :     0.000463
      f-3     :     0.000458
  4 H s       :     0.609094  s :     0.609094
      pz      :     0.019076  p :     0.051741
      px      :     0.016969
      py      :     0.015696
  5 H s       :     0.609102  s :     0.609102
      pz      :     0.015426  p :     0.051742
      px      :     0.018041
      py      :     0.018275
  6 H s       :     0.609087  s :     0.609087
      pz      :     0.018587  p :     0.051735
      px      :     0.017567
      py      :     0.015581


                     *******************************
                     * LOEWDIN POPULATION ANALYSIS *
                     *******************************

----------------------
LOEWDIN ATOMIC CHARGES
----------------------
   0 O :   -0.195543
   1 Np:    0.072085
   2 O :   -0.195529
   3 O :   -0.195509
   4 H :    0.171489
   5 H :    0.171487
   6 H :    0.171520

-------------------------------
LOEWDIN REDUCED ORBITAL CHARGES
-------------------------------
  0 O s       :     3.376074  s :     3.376074
      pz      :     1.658730  p :     4.686479
      px      :     1.511012
      py      :     1.516737
      dz2     :     0.026478  d :     0.123963
      dxz     :     0.009241
      dyz     :     0.010623
      dx2y2   :     0.013832
      dxy     :     0.063788
      f0      :     0.000640  f :     0.009027
      f+1     :     0.001216
      f-1     :     0.001465
      f+2     :     0.000418
      f-2     :     0.000835
      f+3     :     0.002502
      f-3     :     0.001951
  1 Nps       :    12.569023  s :    12.569023
      pz      :     9.890694  p :    29.817685
      px      :     9.909025
      py      :    10.017965
      dz2     :     6.396488  d :    31.976117
      dxz     :     6.500107
      dyz     :     6.345810
      dx2y2   :     6.309738
      dxy     :     6.423974
      f0      :     2.262450  f :    18.565090
      f+1     :     3.379379
      f-1     :     3.003569
      f+2     :     2.179834
      f-2     :     2.270647
      f+3     :     3.066517
      f-3     :     2.402694
  2 O s       :     3.376079  s :     3.376079
      pz      :     1.491926  p :     4.686403
      px      :     1.550715
      py      :     1.643763
      dz2     :     0.019370  d :     0.124017
      dxz     :     0.056470
      dyz     :     0.017620
      dx2y2   :     0.015631
      dxy     :     0.014925
      f0      :     0.000802  f :     0.009030
      f+1     :     0.002706
      f-1     :     0.000910
      f+2     :     0.001685
      f-2     :     0.001607
      f+3     :     0.000639
      f-3     :     0.000681
  3 O s       :     3.376056  s :     3.376056
      pz      :     1.466072  p :     4.686415
      px      :     1.581330
      py      :     1.639012
      dz2     :     0.026582  d :     0.124008
      dxz     :     0.049174
      dyz     :     0.022168
      dx2y2   :     0.011756
      dxy     :     0.014329
      f0      :     0.000858  f :     0.009030
      f+1     :     0.002886
      f-1     :     0.001304
      f+2     :     0.001175
      f-2     :     0.001685
      f+3     :     0.000553
      f-3     :     0.000569
  4 H s       :     0.655048  s :     0.655048
      pz      :     0.072085  p :     0.173463
      px      :     0.055545
      py      :     0.045833
  5 H s       :     0.655051  s :     0.655051
      pz      :     0.042976  p :     0.173462
      px      :     0.063644
      py      :     0.066843
  6 H s       :     0.655038  s :     0.655038
      pz      :     0.068196  p :     0.173443
      px      :     0.060360
      py      :     0.044887


                      *****************************
                      * MAYER POPULATION ANALYSIS *
                      *****************************

  NA   - Mulliken gross atomic population
  ZA   - Total nuclear charge
  QA   - Mulliken gross atomic charge
  VA   - Mayer's total valence
  BVA  - Mayer's bonded valence
  FA   - Mayer's free valence

  ATOM       NA         ZA         QA         VA         BVA        FA
  0 O      8.9052     8.0000    -0.9052     1.4518     0.9732     0.4787
  1 Np    91.3020    93.0000     1.6980     1.6502     0.1474     1.5027
  2 O      8.9051     8.0000    -0.9051     1.4516     0.9729     0.4787
  3 O      8.9051     8.0000    -0.9051     1.4516     0.9730     0.4787
  4 H      0.6608     1.0000     0.3392     0.9066     0.8582     0.0484
  5 H      0.6608     1.0000     0.3392     0.9066     0.8582     0.0484
  6 H      0.6608     1.0000     0.3392     0.9066     0.8582     0.0484

  Mayer bond orders larger than 0.1
B(  0-O ,  5-H ) :   0.8489 B(  2-O ,  6-H ) :   0.8489 B(  3-O ,  4-H ) :   0.8489 



                *******************************************
                * RELAXED MP2 DENSITY POPULATION ANALYSIS *
                *******************************************

------------------------------------------------------------------------------
                           ORCA POPULATION ANALYSIS
------------------------------------------------------------------------------
Input electron density              ... /home/nikolayandreadi_2125/_scratch/MP2/NpOH3.pmp2re
BaseName (.gbw .S,...)              ... /home/nikolayandreadi_2125/_scratch/MP2/NpOH3

                    ********************************
                    * MULLIKEN POPULATION ANALYSIS *
                    ********************************

-----------------------
MULLIKEN ATOMIC CHARGES
-----------------------
   0 O :   -0.759110
   1 Np:    1.197737
   2 O :   -0.759071
   3 O :   -0.759055
   4 H :    0.359832
   5 H :    0.359812
   6 H :    0.359854
Sum of atomic charges:    0.0000000

--------------------------------
MULLIKEN REDUCED ORBITAL CHARGES
--------------------------------
  0 O s       :     3.905100  s :     3.905100
      pz      :     1.773334  p :     4.798263
      px      :     1.516954
      py      :     1.507974
      dz2     :     0.009709  d :     0.049881
      dxz     :     0.007610
      dyz     :     0.008087
      dx2y2   :     0.010026
      dxy     :     0.014449
      f0      :     0.000615  f :     0.005866
      f+1     :     0.000720
      f-1     :     0.000777
      f+2     :     0.000401
      f-2     :     0.000796
      f+3     :     0.001312
      f-3     :     0.001244
  1 Nps       :    13.384371  s :    13.384371
      pz      :     9.888252  p :    29.906318
      px      :     9.918596
      py      :    10.099470
      dz2     :     6.240958  d :    31.171994
      dxz     :     6.238506
      dyz     :     6.241375
      dx2y2   :     6.232038
      dxy     :     6.219117
      f0      :     2.170596  f :    17.339580
      f+1     :     2.829978
      f-1     :     2.927413
      f+2     :     2.102957
      f-2     :     2.152061
      f+3     :     2.918295
      f-3     :     2.238280
  2 O s       :     3.905147  s :     3.905147
      pz      :     1.474296  p :     4.798168
      px      :     1.574589
      py      :     1.749284
      dz2     :     0.009727  d :     0.049889
      dxz     :     0.013384
      dyz     :     0.009288
      dx2y2   :     0.008760
      dxy     :     0.008729
      f0      :     0.000757  f :     0.005867
      f+1     :     0.001391
      f-1     :     0.000665
      f+2     :     0.001019
      f-2     :     0.000969
      f+3     :     0.000539
      f-3     :     0.000528
  3 O s       :     3.905124  s :     3.905124
      pz      :     1.428053  p :     4.798177
      px      :     1.630441
      py      :     1.739683
      dz2     :     0.010523  d :     0.049887
      dxz     :     0.012637
      dyz     :     0.010044
      dx2y2   :     0.008226
      dxy     :     0.008456
      f0      :     0.000841  f :     0.005867
      f+1     :     0.001412
      f-1     :     0.000835
      f+2     :     0.000865
      f-2     :     0.000964
      f+3     :     0.000480
      f-3     :     0.000469
  4 H s       :     0.588159  s :     0.588159
      pz      :     0.018879  p :     0.052009
      px      :     0.017074
      py      :     0.016056
  5 H s       :     0.588179  s :     0.588179
      pz      :     0.015705  p :     0.052009
      px      :     0.017977
      py      :     0.018327
  6 H s       :     0.588144  s :     0.588144
      pz      :     0.018454  p :     0.052003
      px      :     0.017596
      py      :     0.015953


                     *******************************
                     * LOEWDIN POPULATION ANALYSIS *
                     *******************************

----------------------
LOEWDIN ATOMIC CHARGES
----------------------
   0 O :   -0.094252
   1 Np:   -0.293795
   2 O :   -0.094226
   3 O :   -0.094209
   4 H :    0.192150
   5 H :    0.192147
   6 H :    0.192184

-------------------------------
LOEWDIN REDUCED ORBITAL CHARGES
-------------------------------
  0 O s       :     3.375429  s :     3.375429
      pz      :     1.608699  p :     4.589004
      px      :     1.482680
      py      :     1.497625
      dz2     :     0.024978  d :     0.120521
      dxz     :     0.009544
      dyz     :     0.010907
      dx2y2   :     0.015044
      dxy     :     0.060048
      f0      :     0.000669  f :     0.009298
      f+1     :     0.001218
      f-1     :     0.001461
      f+2     :     0.000420
      f-2     :     0.000888
      f+3     :     0.002635
      f-3     :     0.002008
  1 Nps       :    13.030176  s :    13.030176
      pz      :     9.906478  p :    29.970022
      px      :     9.937960
      py      :    10.125584
      dz2     :     6.429842  d :    32.124868
      dxz     :     6.516020
      dyz     :     6.386748
      dx2y2   :     6.351394
      dxy     :     6.440865
      f0      :     2.295089  f :    18.168729
      f+1     :     3.007139
      f-1     :     3.011805
      f+2     :     2.197497
      f-2     :     2.305798
      f+3     :     3.019562
      f-3     :     2.331839
  2 O s       :     3.375432  s :     3.375432
      pz      :     1.467404  p :     4.588916
      px      :     1.519296
      py      :     1.602215
      dz2     :     0.018992  d :     0.120576
      dxz     :     0.052236
      dyz     :     0.018280
      dx2y2   :     0.015731
      dxy     :     0.015336
      f0      :     0.000859  f :     0.009302
      f+1     :     0.002711
      f-1     :     0.000963
      f+2     :     0.001714
      f-2     :     0.001684
      f+3     :     0.000666
      f-3     :     0.000705
  3 O s       :     3.375411  s :     3.375411
      pz      :     1.445474  p :     4.588929
      px      :     1.545019
      py      :     1.598436
      dz2     :     0.025286  d :     0.120568
      dxz     :     0.045840
      dyz     :     0.022741
      dx2y2   :     0.012103
      dxy     :     0.014597
      f0      :     0.000921  f :     0.009301
      f+1     :     0.002883
      f-1     :     0.001377
      f+2     :     0.001216
      f-2     :     0.001751
      f+3     :     0.000570
      f-3     :     0.000583
  4 H s       :     0.637037  s :     0.637037
      pz      :     0.072112  p :     0.170813
      px      :     0.054416
      py      :     0.044285
  5 H s       :     0.637040  s :     0.637040
      pz      :     0.041031  p :     0.170812
      px      :     0.063248
      py      :     0.066534
  6 H s       :     0.637023  s :     0.637023
      pz      :     0.067957  p :     0.170793
      px      :     0.059543
      py      :     0.043292


                      *****************************
                      * MAYER POPULATION ANALYSIS *
                      *****************************

  NA   - Mulliken gross atomic population
  ZA   - Total nuclear charge
  QA   - Mulliken gross atomic charge
  VA   - Mayer's total valence
  BVA  - Mayer's bonded valence
  FA   - Mayer's free valence

  ATOM       NA         ZA         QA         VA         BVA        FA
  0 O      8.7591     8.0000    -0.7591     1.7840     1.3744     0.4096
  1 Np    91.8023    93.0000     1.1977     1.8691     1.4706     0.3985
  2 O      8.7591     8.0000    -0.7591     1.7839     1.3743     0.4096
  3 O      8.7591     8.0000    -0.7591     1.7839     1.3743     0.4096
  4 H      0.6402     1.0000     0.3598     0.8866     0.8411     0.0456
  5 H      0.6402     1.0000     0.3598     0.8867     0.8411     0.0456
  6 H      0.6401     1.0000     0.3599     0.8866     0.8410     0.0456

  Mayer bond orders larger than 0.1
B(  0-O ,  1-Np) :   0.4798 B(  0-O ,  5-H ) :   0.8232 B(  1-Np,  2-O ) :   0.4797 
B(  1-Np,  3-O ) :   0.4797 B(  2-O ,  6-H ) :   0.8231 B(  3-O ,  4-H ) :   0.8232 



----------------------------------
MP2 DERIVATIVE INTEGRAL GENERATION
----------------------------------


Input Wavefunction Amplitudes       ... /home/nikolayandreadi_2125/_scratch/MP2/NpOH3.mp2tsaa.tmp.proc19
Input Correlated Electron Density   ... /home/nikolayandreadi_2125/_scratch/MP2/NpOH3.pmp2re
Input Energy Weighted Density       ... /home/nikolayandreadi_2125/_scratch/MP2/NpOH3.wmp2.tmp
Input SCF Electron Density          ... /home/nikolayandreadi_2125/_scratch/MP2/NpOH3.scfp.tmp

One-Electron Terms    ...
                        ... One-Electron Terms done
Prescreening matrices              ... done

Batch handling in the gradient evaluation:
Memory available                      ... 31500.0 MB
Memory per occupied orbital in Q2     ...   13.1 MB
Memory per occupied orbital in Q3     ...    0.1 MB
Total memory requirement per |i>      ...   13.2 MB
Max. Number of orbitals possible      ...   2389
Number of orbitals treated per batch  ...     23
Number of batches to be done          ...      1
Batch   0: i=   37 ...    59

---------------------------------------
MP2 TOTAL ENERGY:   -28964.176755902 Eh
---------------------------------------

-----------------------------------
NORM OF THE MP2 GRADIENT:  0.000119
-----------------------------------

-------------------------   --------------------
FINAL SINGLE POINT ENERGY    -28964.176755902055
-------------------------   --------------------

                                *** OPTIMIZATION RUN DONE ***

                            ***************************************
                            *     ORCA property calculations      *
                            ***************************************

                                    ---------------------
                                    Active property flags
                                    ---------------------
   (+) Dipole Moment


------------------------------------------------------------------------------
                       ORCA ELECTRIC PROPERTIES CALCULATION
------------------------------------------------------------------------------

Dipole Moment Calculation                       ... on
Quadrupole Moment Calculation                   ... off
Polarizability Calculation                      ... off
GBWName                                         ... /home/nikolayandreadi_2125/_scratch/MP2/NpOH3.gbw
Electron density file                           ... /home/nikolayandreadi_2125/_scratch/MP2/NpOH3.scfp.tmp
The origin for moment calculation is the CENTER OF MASS  = ( 0.983673, -3.071594  0.299647)

-------------
DIPOLE MOMENT
-------------
                                X             Y             Z
Electronic contribution:      3.70214      -9.78289       0.02961
Nuclear contribution   :     -3.63770       9.61170      -0.02926
                        -----------------------------------------
Total Dipole Moment    :      0.06444      -0.17118       0.00036
                        -----------------------------------------
Magnitude (a.u.)       :      0.18291
Magnitude (Debye)      :      0.46492


                         *** MP2 UNRELAXED DENSITY ***

------------------------------------------------------------------------------
                       ORCA ELECTRIC PROPERTIES CALCULATION
------------------------------------------------------------------------------

Dipole Moment Calculation                       ... on
Quadrupole Moment Calculation                   ... off
Polarizability Calculation                      ... off
GBWName                                         ... /home/nikolayandreadi_2125/_scratch/MP2/NpOH3.gbw
Electron density file                           ... /home/nikolayandreadi_2125/_scratch/MP2/NpOH3.pmp2ur
The origin for moment calculation is the CENTER OF MASS  = ( 0.983673, -3.071594  0.299647)

-------------
DIPOLE MOMENT
-------------
                                X             Y             Z
Electronic contribution:      3.66337      -9.68042       0.02931
Nuclear contribution   :     -3.63770       9.61170      -0.02926
                        -----------------------------------------
Total Dipole Moment    :      0.02567      -0.06872       0.00006
                        -----------------------------------------
Magnitude (a.u.)       :      0.07336
Magnitude (Debye)      :      0.18646


                           *** MP2 RELAXED DENSITY ***

------------------------------------------------------------------------------
                       ORCA ELECTRIC PROPERTIES CALCULATION
------------------------------------------------------------------------------

Dipole Moment Calculation                       ... on
Quadrupole Moment Calculation                   ... off
Polarizability Calculation                      ... off
GBWName                                         ... /home/nikolayandreadi_2125/_scratch/MP2/NpOH3.gbw
Electron density file                           ... /home/nikolayandreadi_2125/_scratch/MP2/NpOH3.pmp2re
The origin for moment calculation is the CENTER OF MASS  = ( 0.983673, -3.071594  0.299647)

-------------
DIPOLE MOMENT
-------------
                                X             Y             Z
Electronic contribution:      3.11349      -8.22778       0.02492
Nuclear contribution   :     -3.63770       9.61170      -0.02926
                        -----------------------------------------
Total Dipole Moment    :     -0.52422       1.38392      -0.00433
                        -----------------------------------------
Magnitude (a.u.)       :      1.47989
Magnitude (Debye)      :      3.76157


Timings for individual modules:

Sum of individual times         ...    12615.433 sec (= 210.257 min)
GTO integral calculation        ...       37.345 sec (=   0.622 min)   0.3 %
Relativistic integrals          ...       14.074 sec (=   0.235 min)   0.1 %
SCF iterations                  ...     5757.958 sec (=  95.966 min)  45.6 %
MP2 module                      ...     6804.571 sec (= 113.410 min)  53.9 %
Geometry relaxation             ...        1.486 sec (=   0.025 min)   0.0 %
                             ****ORCA TERMINATED NORMALLY****
TOTAL RUN TIME: 0 days 3 hours 30 minutes 20 seconds 963 msec
