
                                 *****************
                                 * O   R   C   A *
                                 *****************

           --- An Ab Initio, DFT and Semiempirical electronic structure package ---

                  #######################################################
                  #                        -***-                        #
                  #  Department of molecular theory and spectroscopy    #
                  #              Directorship: Frank Neese              #
                  # Max Planck Institute for Chemical Energy Conversion #
                  #                  D-45470 Muelheim/Ruhr              #
                  #                       Germany                       #
                  #                                                     #
                  #                  All rights reserved                #
                  #                        -***-                        #
                  #######################################################


                         Program Version 4.0.1.2 - RELEASE -


 With contributions from (in alphabetic order):
   Daniel Aravena         : Magnetic Properties
   Michael Atanasov       : Ab Initio Ligand Field Theory
   Ute Becker             : Parallelization
   Martin Brehm           : Molecular dynamics
   Dmytro Bykov           : SCF Hessian
   Vijay G. Chilkuri      : MRCI spin determinant printing
   Dipayan Datta          : RHF DLPNO-CCSD density
   Achintya Kumar Dutta   : EOM-CC, STEOM-CC
   Dmitry Ganyushin       : Spin-Orbit,Spin-Spin,Magnetic field MRCI
   Yang Guo               : DLPNO-NEVPT2, CIM, IAO-localization
   Andreas Hansen         : Spin unrestricted coupled pair/coupled cluster methods
   Lee Huntington         : MR-EOM, pCC
   Robert Izsak           : Overlap fitted RIJCOSX, COSX-SCS-MP3, EOM
   Christian Kollmar      : KDIIS, OOCD, Brueckner-CCSD(T), CCSD density
   Simone Kossmann        : Meta GGA functionals, TD-DFT gradient, OOMP2, MP2 Hessian
   Martin Krupicka        : AUTO-CI
   Dagmar Lenk            : GEPOL surface
   Dimitrios Liakos       : Extrapolation schemes; parallel MDCI
   Dimitrios Manganas     : ROCIS; embedding schemes
   Dimitrios Pantazis     : SARC Basis sets
   Taras Petrenko         : DFT Hessian,TD-DFT gradient, ASA, ECA, R-Raman, ABS, FL, XAS/XES, NRVS
   Peter Pinski           : DLPNO-MP2
   Christoph Reimann      : Effective Core Potentials
   Marius Retegan         : Local ZFS, SOC
   Christoph Riplinger    : Optimizer, TS searches, QM/MM, DLPNO-CCSD(T), (RO)-DLPNO pert. Triples
   Tobias Risthaus        : Range-separated hybrids, TD-DFT gradient, RPA, STAB
   Michael Roemelt        : Restricted open shell CIS
   Masaaki Saitow         : Open-shell DLPNO
   Barbara Sandhoefer     : DKH picture change effects
   Kantharuban Sivalingam : CASSCF convergence, NEVPT2, FIC-MRCI
   Georgi Stoychev        : AutoAux
   Boris Wezisla          : Elementary symmetry handling
   Frank Wennmohs         : Technical directorship


 We gratefully acknowledge several colleagues who have allowed us to
 interface, adapt or use parts of their codes:
   Stefan Grimme, W. Hujo, H. Kruse,             : VdW corrections, initial TS optimization,
                  C. Bannwarth                     DFT functionals, gCP, sTDA/sTD-DF
   Ed Valeev                                     : LibInt (2-el integral package), F12 methods
   Garnet Chan, S. Sharma, J. Yang, R. Olivares  : DMRG
   Ulf Ekstrom                                   : XCFun DFT Library
   Mihaly Kallay                                 : mrcc  (arbitrary order and MRCC methods)
   Andreas Klamt, Michael Diedenhofen            : otool_cosmo (COSMO solvation model)
   Jiri Pittner, Ondrej Demel                    : Mk-CCSD
   Frank Weinhold                                : gennbo (NPA and NBO analysis)
   Christopher J. Cramer and Donald G. Truhlar   : smd solvation model


 Your calculation uses the libint2 library for the computation of 2-el integrals
 For citations please refer to: http://libint.valeyev.net

 This ORCA versions uses:
   CBLAS   interface :  Fast vector & matrix operations
   LAPACKE interface :  Fast linear algebra routines
   SCALAPACK package :  Parallel linear algebra routines


Your calculation utilizes the basis: DKH-def2-TZVP
   Exponents from def2-TZVP [F. Weigend and R. Ahlrichs, Phys. Chem. Chem. Phys. 7, 3297 (2005)],
   recontracted for DKH2 by D. A. Pantazis.

Your calculation utilizes the auxiliary basis: SARC/J 
   decontracted def2/J up to Kr:
   F. Weigend, Phys. Chem. Chem. Phys. 8, 1057 (2006)
   and SARC auxiliary basis sets beyond Kr:
   D. A. Pantazis and F. Neese, J. Chem. Theory Comput. 5, 2229 (2009).
   D. A. Pantazis, X. Y. Chen, C. R. Landis and F. Neese, J. Chem. Theory Comput. 4, 908 (2008).
   D. A. Pantazis and F. Neese, Theor. Chem. Acc. 131, 1292 (2012).
   D. A. Pantazis and F. Neese, J. Chem. Theory Comput. 7, 677 (2011).

================================================================================
                                        WARNINGS
                       Please study these warnings very carefully!
================================================================================

Warning: TCutStore was < 0. Adjusted to Thresh (uncritical)

WARNING: your system is open-shell and RHF/RKS was chosen
  ===> : WILL SWITCH to UHF/UKS


WARNING: In scalar relativistic gradient/hessian runs we need the one-center approximation
  ===> : %rel OneCenter is turned on

WARNING: The frozen-core approximation for MP2-gradient calculations is turned on by default.

WARNING: Geometry Optimization
  ===> : Switching off AutoStart
         For restart on a previous wavefunction, please use MOREAD

WARNING: Post HF methods need fully converged wavefunctions
  ===> : Setting SCFConvForced true
         You can overwrite this default with %scf ConvForced false 


INFO   : the flag for use of LIBINT has been found!

================================================================================
                                       INPUT FILE
================================================================================
NAME = /home/nikolayandreadi_2125/_scratch/MP2/PuCl3.inp
|  1> !Opt MP2 DKH-def2-TZVP DKH SARC/J SlowConv
|  2> 
|  3> %pal
|  4> nproc 20
|  5> end
|  6> 
|  7> %maxcore 31500
|  8> 
|  9> %basis
| 10> newgto Pu "SARC-DKH-TZVP" end
| 11> end
| 12> 
| 13> %scf
| 14> MaxIter 5000
| 15> Guess HCore
| 16> end
| 17> 
| 18> %method
| 19> Z_MaxIter 5000
| 20> end
| 21> 
| 22> * xyz 0 2
| 23>   Pu    -0.010780   -0.041435   -0.011716
| 24>   Cl    -0.941486   -1.287850   -1.993765
| 25>   Cl    -0.839827    2.317584    0.132278
| 26>   Cl     2.492424    0.002131    0.157743
| 27> **                         ****END OF INPUT****
================================================================================

                       *****************************
                       * Geometry Optimization Run *
                       *****************************

Geometry optimization settings:
Update method            Update   .... BFGS
Choice of coordinates    CoordSys .... Redundant Internals
Initial Hessian          InHess   .... Almoef's Model

Convergence Tolerances:
Energy Change            TolE     ....  5.0000e-06 Eh
Max. Gradient            TolMAXG  ....  3.0000e-04 Eh/bohr
RMS Gradient             TolRMSG  ....  1.0000e-04 Eh/bohr
Max. Displacement        TolMAXD  ....  4.0000e-03 bohr
RMS Displacement         TolRMSD  ....  2.0000e-03 bohr

------------------------------------------------------------------------------
                        ORCA OPTIMIZATION COORDINATE SETUP
------------------------------------------------------------------------------

The optimization will be done in new redundant internal coordinates
Making redundant internal coordinates   ...  (new redundants) done
Evaluating the initial hessian          ...  (Almloef) done
Evaluating the coordinates              ...  done
Calculating the B-matrix                .... done
Calculating the G-matrix                .... done
Diagonalizing the G-matrix              .... done
The first mode is                       ....    1
The number of degrees of freedom        ....    6

    -----------------------------------------------------------------
                    Redundant Internal Coordinates


    -----------------------------------------------------------------
         Definition                    Initial Value    Approx d2E/dq
    -----------------------------------------------------------------
      1. B(Cl  1,Pu  0)                  2.5196         0.074311   
      2. B(Cl  2,Pu  0)                  2.5046         0.078515   
      3. B(Cl  3,Pu  0)                  2.5093         0.077168   
      4. A(Cl  1,Pu  0,Cl  3)          115.4805         0.261167   
      5. A(Cl  2,Pu  0,Cl  3)          108.0574         0.263325   
      6. A(Cl  1,Pu  0,Cl  2)          112.8856         0.261843   
      7. I(Cl  1,Cl  3,Cl  2,Pu  0)    -45.7563         0.003640   
    -----------------------------------------------------------------

Number of atoms                         .... 4
Number of degrees of freedom            .... 7

         *************************************************************
         *                GEOMETRY OPTIMIZATION CYCLE   1            *
         *************************************************************
---------------------------------
CARTESIAN COORDINATES (ANGSTROEM)
---------------------------------
  Pu    -0.010780   -0.041435   -0.011716
  Cl    -0.941486   -1.287850   -1.993765
  Cl    -0.839827    2.317584    0.132278
  Cl     2.492424    0.002131    0.157743

----------------------------
CARTESIAN COORDINATES (A.U.)
----------------------------
  NO LB      ZA    FRAG     MASS         X           Y           Z
   0 Pu   94.0000    0   244.000   -0.020371   -0.078301   -0.022140
   1 Cl   17.0000    0    35.453   -1.779151   -2.433684   -3.767670
   2 Cl   17.0000    0    35.453   -1.587043    4.379599    0.249969
   3 Cl   17.0000    0    35.453    4.709999    0.004027    0.298091

--------------------------------
INTERNAL COORDINATES (ANGSTROEM)
--------------------------------
 Pu     0   0   0     0.000000000000     0.00000000     0.00000000
 Cl     1   0   0     2.519579776285     0.00000000     0.00000000
 Cl     1   2   0     2.504600535536   112.88559326     0.00000000
 Cl     1   2   3     2.509311581819   115.48048672   234.97943442

---------------------------
INTERNAL COORDINATES (A.U.)
---------------------------
 Pu     0   0   0     0.000000000000     0.00000000     0.00000000
 Cl     1   0   0     4.761315749744     0.00000000     0.00000000
 Cl     1   2   0     4.733009087035   112.88559326     0.00000000
 Cl     1   2   3     4.741911674315   115.48048672   234.97943442

---------------------
BASIS SET INFORMATION
---------------------
There are 2 groups of distinct atoms

 Group   1 Type Pu  : 29s20p16d12f contracted to 21s13p10d7f pattern {911111111111111111111/8111111111111/7111111111/6111111}
 Group   2 Type Cl  : 14s9p3d1f contracted to 8s4p2d1f pattern {71111111/6111/21/1}

Atom   0Pu   basis set group =>   1
Atom   1Cl   basis set group =>   2
Atom   2Cl   basis set group =>   2
Atom   3Cl   basis set group =>   2

INFORMATION: There is an auxiliary basis set but the global RI flag is NOT set

-------------------------------
AUXILIARY BASIS SET INFORMATION
-------------------------------
There are 2 groups of distinct atoms

 Group   1 Type Pu  : 33s10p8d6f4g2h1i contracted to 33s10p8d6f4g2h1i pattern {111111111111111111111111111111111/1111111111/11111111/111111/1111/11/1}
 Group   2 Type Cl  : 14s5p5d2f1g contracted to 14s5p5d2f1g pattern {11111111111111/11111/11111/11/1}

Atom   0Pu   basis set group =>   1
Atom   1Cl   basis set group =>   2
Atom   2Cl   basis set group =>   2
Atom   3Cl   basis set group =>   2


           ************************************************************
           *        Program running with 20 parallel MPI-processes    *
           *              working on a common directory               *
           ************************************************************
------------------------------------------------------------------------------
                           ORCA GTO INTEGRAL CALCULATION
------------------------------------------------------------------------------

                         BASIS SET STATISTICS AND STARTUP INFO

 # of primitive gaussian shells          ...  158
 # of primitive gaussian functions       ...  442
 # of contracted shells                  ...   96
 # of contracted basis functions         ...  270
 Highest angular momentum                ...    3
 Maximum contraction depth               ...    9
 Integral package used                   ... LIBINT
 Integral threshhold            Thresh   ...  2.500e-11
 Primitive cut-off              TCut     ...  2.500e-12


------------------------------ INTEGRAL EVALUATION ----------------------------


 * One electron integrals 
 Pre-screening matrix                    ... done
 Shell pair data                         ... done (   0.001 sec)

------------------------------------------------------------------------------
                          ORCA RELATIVISTIC HAMILTONIAN
------------------------------------------------------------------------------

Relativistic Method            ... DKH
Order of DKH treatment         ...   2
Treatment of potential         ... V(e,N)
Eps parameter for DKH          ...   0.00000000010000
Nucleus model                  ... Point Nucleus
Speed of light used            ... 137.03598950000000


            ************************************************
            *        DOUGLAS-KROLL-HESS HAMILTONIAN        *
            *   Programmed by FN according to literature   *
            *        procedures. Special thanks to         *
            *       B.A. Hess, M. Reiher and A. Wolf       *
            *     University Erlangen-Nuernberg/Bonn       *
            ************************************************

Uncontracting the basis (first version)        ... done
Number of contracted basis functions           ...  270
Number of uncontracted basis functions         ...  442
Initializing the DKH file                      ... done
One center approximation for DKH is active
Finding unique atoms                      ... 2 atom types
 ATOMIC NUMBER  94
          ... doing integrals          ... Computing the DKH transformation
          ... Transforming V and pVp to p**2 space
          ... First transformation of V and pVp
          ... Second transformation of Veff
          ... Adding kinetic energy
          ... Back transformation of Veff to r-space
          ... Recontracting the H-matrix
          ... Computing the DKH correction to the H-matrix
          ... adding submatrics to 1 actual atoms
 ATOMIC NUMBER  17
          ... doing integrals          ... Computing the DKH transformation
          ... Transforming V and pVp to p**2 space
          ... First transformation of V and pVp
          ... Second transformation of Veff
          ... Adding kinetic energy
          ... Back transformation of Veff to r-space
          ... Recontracting the H-matrix
          ... Computing the DKH correction to the H-matrix
          ... adding submatrics to 3 actual atoms
Storing DKH matrices                           ... done
Getting S**(-1/2)                              ... done
Reading the original H-matrix                  ... done
Adding DKH correction to the H-matrix          ... done
Storing the new modified H-matrix              ... done


           ************************************************************
           *        Program running with 20 parallel MPI-processes    *
           *              working on a common directory               *
           ************************************************************
-------------------------------------------------------------------------------
                                 ORCA SCF
-------------------------------------------------------------------------------

------------
SCF SETTINGS
------------
Hamiltonian:
 Ab initio Hamiltonian  Method          .... Hartree-Fock(GTOs)

Relativistic Settings:
 Scalar relativistic method             .... Douglas-Kroll-Hess
 Order of DKH procedure    Order        ....    2
 Mode of DKH-treatment                  .... V=V(e,N)
 Speed of light used       Velit        ....       137.035989
 Cutoff-constant           Eps          ....            1e-10 


General Settings:
 Integral files         IntName         .... /home/nikolayandreadi_2125/_scratch/MP2/PuCl3
 Hartree-Fock type      HFTyp           .... UHF
 Total Charge           Charge          ....    0
 Multiplicity           Mult            ....    2
 Number of Electrons    NEL             ....  145
 Basis Dimension        Dim             ....  270
 Nuclear Repulsion      ENuc            ....   1120.4223248966 Eh

Convergence Acceleration:
 DIIS                   CNVDIIS         .... on
   Start iteration      DIISMaxIt       ....     0
   Startup error        DIISStart       ....  0.200000
   # of expansion vecs  DIISMaxEq       ....     5
   Bias factor          DIISBfac        ....   1.050
   Max. coefficient     DIISMaxC        ....  10.000
 Newton-Raphson         CNVNR           .... off
 SOSCF                  CNVSOSCF        .... off
 Level Shifting         CNVShift        .... on
   Level shift para.    LevelShift      ....    0.2500
   Turn off err/grad.   ShiftErr        ....    0.0000
 Zerner damping         CNVZerner       .... off
 Static damping         CNVDamp         .... on
   Fraction old density DampFac         ....    0.8500
   Max. Damping (<1)    DampMax         ....    0.9800
   Min. Damping (>=0)   DampMin         ....    0.0000
   Turn off err/grad.   DampErr         ....    0.0300
 Fernandez-Rico         CNVRico         .... off

SCF Procedure:
 Maximum # iterations   MaxIter         ....  5000
 SCF integral mode      SCFMode         .... Direct
   Integral package                     .... LIBINT
 Reset frequeny         DirectResetFreq ....    20
 Integral Threshold     Thresh          ....  2.500e-11 Eh
 Primitive CutOff       TCut            ....  2.500e-12 Eh

Convergence Tolerance:
 Convergence Check Mode ConvCheckMode   .... Total+1el-Energy
 Convergence forced     ConvForced      .... 1
 Energy Change          TolE            ....  1.000e-08 Eh
 1-El. energy change                    ....  1.000e-05 Eh
 DIIS Error             TolErr          ....  5.000e-07


Diagonalization of the overlap matrix:
Smallest eigenvalue                        ... 4.331e-04
Time for diagonalization                   ...    0.014 sec
Threshold for overlap eigenvalues          ... 1.000e-08
Number of eigenvalues below threshold      ... 0
Time for construction of square roots      ...    0.011 sec
Total time needed                          ...    0.026 sec

--------------------
INITIAL GUESS: HCORE
--------------------
                      -----------------
                      INTIAL GUESS DONE 
                      -----------------
--------------
SCF ITERATIONS
--------------
ITER       Energy         Delta-E        Max-DP      RMS-DP      [F,P]     Damp
               ***  Starting incremental Fock matrix formation  ***
  0 -24193.1354129493   0.00000000000010.68068140  0.09657770 76.8402230 0.8500
  1 -26129.9432087481-1936.807795798792 9.07887556  0.08236901 62.8881744 0.8500
                               ***Turning on DIIS***
  2 -27315.5825502027-1185.639341454604 7.69479053  0.07271657 51.5952469 0.8500
  3 -29985.5266704532-2669.944120250504 5.24142138  0.05739651 42.3736224 0.8500
  4 -29986.9809280055  -1.454257552246 5.40856352  0.04878124 35.5240000 0.8500
  5 -30009.8288392202 -22.847911214714 5.71159304  0.05183004 29.9873714 0.8500
  6 -30264.0947486834-254.265909463196 3.94388715  0.03598450 25.3661257 0.8500
  7 -30194.2790659845  69.815682698929 3.47257642  0.03099926 21.5085929 0.8500
  8 -30440.9837643708-246.704698386311 2.83347192  0.02620805 18.2060609 0.8500
  9 -30422.5414702013  18.442294169457 2.49125540  0.02230765 15.4333907 0.8500
 10 -30531.4532034244-108.911733223067 2.07277033  0.01888956 13.0874328 0.8500
 11 -30623.1715127345 -91.718309310105 1.71919647  0.01611806 11.1064498 0.8500
 12 -30641.1281747248 -17.956661990298 1.48694360  0.01375573  9.4286444 0.8500
 13 -30683.7032147406 -42.575040015778 1.26194266  0.01168897  8.0008059 0.8500
 14 -30694.0628476687 -10.359632928165 1.08713859  0.00996846  6.7884969 0.8500
 15 -30728.3092174074 -34.246369738634 0.91847240  0.00845984  5.7581721 0.8500
 16 -30767.6618433180 -39.352625910611 0.76991958  0.00716691  4.8849714 0.8500
 17 -30790.6862427537 -23.024399435726 0.65390949  0.00609126  4.1449000 0.8500
 18 -30807.6361404293 -16.949897675579 0.55769375  0.00518177  3.5165377 0.8500
 19 -30821.2901712008 -13.654030771555 0.47599504  0.00440884  2.9829940 0.8500
               *** Restarting incremental Fock matrix formation ***
                                   *** Resetting DIIS ***
 20 -30751.3363857927  69.953785408143 0.46282163  0.00391343  2.5300607 0.8500
 21 -30818.7215057741 -67.385119981423 0.34757773  0.00319521  2.0870185 0.8500
 22 -30848.6638239403 -29.942318166199 0.27670502  0.00267870  1.7435138 0.8500
 23 -30860.9307723640 -12.266948423632 0.23319558  0.00227284  1.4684913 0.8500
 24 -30868.8686557914  -7.937883427439 0.19979906  0.00193395  1.2423547 0.8500
 25 -30872.5940795761  -3.725423784712 0.17364264  0.00165070  1.0533862 0.8500
 26 -30878.6778639973  -6.083784421182 0.14849135  0.00140494  0.8933233 0.8500
 27 -30885.6015508775  -6.923686880233 0.12554189  0.00119297  0.7574670 0.8500
 28 -30891.2771817504  -5.675630872913 0.10633880  0.00101349  0.6423216 0.8500
 29 -30895.6671335776  -4.389951827176 0.09046517  0.00086187  0.5447156 0.8500
 30 -30899.1701607633  -3.503027185707 0.07715581  0.00073336  0.4619448 0.8500
 31 -30902.2380654213  -3.067904657950 0.06573300  0.00062391  0.3917377 0.8500
 32 -30904.9833571448  -2.745291723491 0.05589648  0.00053061  0.3321939 0.8500
 33 -30907.3653844087  -2.382027263957 0.04750517  0.00045124  0.2817035 0.8500
 34 -30909.3849877044  -2.019603295692 0.04039084  0.00038382  0.2388919 0.8500
 35 -30911.0922212659  -1.707233561472 0.03435974  0.00032656  0.2025889 0.8500
 36 -30912.5491881421  -1.456966876201 0.02923200  0.00027790  0.1718032 0.8500
 37 -30913.8007950614  -1.251606919344 0.02486501  0.00023653  0.1456961 0.8500
 38 -30914.8751206303  -1.074325568872 0.02114756  0.00020137  0.1235571 0.8500
 39 -30915.7941397132  -0.919019082918 0.01798620  0.00017149  0.1047832 0.8500
               *** Restarting incremental Fock matrix formation ***
                                   *** Resetting DIIS ***
 40 -30914.6186744131   1.175465300075 0.01666755  0.00014844  0.0888628 0.8500
 41 -30916.5338833241  -1.915208910956 0.01306549  0.00012353  0.0734666 0.8500
 42 -30917.6987277115  -1.164844387415 0.01059116  0.00010425  0.0614102 0.8500
 43 -30918.2670230952  -0.568295383717 0.00898733  0.00008902  0.0517994 0.8500
 44 -30918.6599316635  -0.392908568247 0.00773033  0.00007633  0.0438908 0.8500
 45 -30918.9075253209  -0.247593657441 0.00671730  0.00006572  0.0372571 0.8500
 46 -30919.2143205208  -0.306795199926 0.00575319  0.00005657  0.0316057 0.8500
 47 -30919.5274642826  -0.313143761799 0.03254298  0.00032493  0.0268026 0.0000
 48 -30921.1960226105  -1.668558327889 0.00162105  0.00003024  0.0037510 0.0000
 49 -30921.1913176989   0.004704911618 0.00184003  0.00003156  0.0035346 0.0000
 50 -30921.1801528031   0.011164895797 0.00424066  0.00006450  0.0034646 0.0000
 51 -30921.1797971192   0.000355683896 0.00493061  0.00006719  0.0032747 0.0000
 52 -30921.1855421959  -0.005745076698 0.00400479  0.00005013  0.0031784 0.0000
 53 -30921.2011877253  -0.015645529344 0.00250402  0.00002960  0.0033534 0.0000
 54 -30921.2021710502  -0.000983324913 0.00078872  0.00000940  0.0034646 0.0000
 55 -30921.2067085721  -0.004537521898 0.00063525  0.00000798  0.0035117 0.0000
 56 -30921.2047472381   0.001961333925 0.00047435  0.00000546  0.0035181 0.0000
 57 -30921.2002122746   0.004534963504 0.00163622  0.00001869  0.0035250 0.0000
 58 -30921.2017975822  -0.001585307571 0.00187836  0.00002084  0.0035982 0.0000
 59 -30921.2067785847  -0.004981002472 0.00092230  0.00001022  0.0037055 0.0000
               *** Restarting incremental Fock matrix formation ***
                                   *** Resetting DIIS ***
 60 -30921.2011717934   0.005606791281 0.00267343  0.00002872  0.0037665 0.0000
 61 -30921.2026496084  -0.001477814967 0.00237350  0.00002529  0.0039139 0.0000
 62 -30921.2080735140  -0.005423905583 0.00073091  0.00000805  0.0040509 0.0000
 63 -30921.2125979113  -0.004524397315 0.00078938  0.00000816  0.0041073 0.0000
 64 -30921.2119495388   0.000648372461 0.00017550  0.00000193  0.0040789 0.0000
 65 -30921.2050253496   0.006924189180 0.00238919  0.00002486  0.0040648 0.0000
 66 -30921.2047888442   0.000236505381 0.00221030  0.00002306  0.0041852 0.0000
 67 -30921.2104924062  -0.005703562001 0.00024368  0.00000310  0.0043150 0.0000
 68 -30921.2140539109  -0.003561504633 0.00075953  0.00000776  0.0043532 0.0000
 69 -30921.2098920136   0.004161897275 0.00105739  0.00001078  0.0043225 0.0000
 70 -30921.2065682294   0.003323784211 0.00203187  0.00002082  0.0043688 0.0000
 71 -30921.2075725458  -0.001004316360 0.00176159  0.00001811  0.0044776 0.0000
 72 -30921.2125525537  -0.004980007943 0.00012657  0.00000175  0.0045851 0.0000
 73 -30921.2146359980  -0.002083444306 0.00029921  0.00000302  0.0046147 0.0000
 74 -30921.2105604471   0.004075550918 0.00139362  0.00001403  0.0046046 0.0000
 75 -30921.2081609778   0.002399469318 0.00200103  0.00002024  0.0046695 0.0000
 76 -30921.2099124242  -0.001751446423 0.00140651  0.00001433  0.0047787 0.0000
 77 -30921.2141980712  -0.004285647014 0.00006545  0.00000111  0.0048697 0.0000
 78 -30921.2148815384  -0.000683467206 0.00013543  0.00000137  0.0048939 0.0000
 79 -30921.2114229500   0.003458588450 0.00145960  0.00001456  0.0049032 0.0000
               *** Restarting incremental Fock matrix formation ***
                                   *** Resetting DIIS ***
 80 -30921.2062879130   0.005135036987 0.00299826  0.00002992  0.0049734 0.0000
 81 -30921.2079096491  -0.001621736126 0.00265386  0.00002654  0.0051294 0.0000
 82 -30921.2135940863  -0.005684437230 0.00102422  0.00001052  0.0052793 0.0000
 83 -30921.2200386754  -0.006444589049 0.00089341  0.00000873  0.0053597 0.0000
 84 -30921.2195637782   0.000474897224 0.00016281  0.00000171  0.0053405 0.0000
 85 -30921.2111867033   0.008377074897 0.00258158  0.00002545  0.0053265 0.0000
 86 -30921.2096278666   0.001558836651 0.00258936  0.00002577  0.0054357 0.0000
 87 -30921.2136654061  -0.004037539467 0.00123847  0.00001259  0.0055749 0.0000
 88 -30921.2194912789  -0.005825872806 0.00065110  0.00000632  0.0056660 0.0000
 89 -30921.2162557694   0.003235509434 0.00089916  0.00000881  0.0056655 0.0000
 90 -30921.2142321207   0.002023648743 0.00151382  0.00001497  0.0056957 0.0000
 91 -30921.2124708463   0.001761274430 0.00214114  0.00002125  0.0057668 0.0000
 92 -30921.2136644407  -0.001193594457 0.00176468  0.00001767  0.0058729 0.0000
 93 -30921.2175638982  -0.003899457482 0.00058015  0.00000604  0.0059717 0.0000
 94 -30921.2201197667  -0.002555868479 0.00002107  0.00000046  0.0060233 0.0000
 95 -30921.2172251545   0.002894612153 0.00116658  0.00001153  0.0060361 0.0000
 96 -30921.2140419752   0.003183179357 0.00201310  0.00002004  0.0060812 0.0000
 97 -30921.2134768138   0.000565161354 0.00218567  0.00002191  0.0061682 0.0000
 98 -30921.2154649983  -0.001988184471 0.00161529  0.00001638  0.0062690 0.0000
 99 -30921.2186409000  -0.003175901678 0.00066823  0.00000696  0.0063537 0.0000
               *** Restarting incremental Fock matrix formation ***
                                   *** Resetting DIIS ***
100 -30921.2125382516   0.006102648360 0.00274192  0.00002757  0.0064028 0.0000
101 -30921.2130072567  -0.000469005063 0.00271038  0.00002759  0.0065035 0.0000
102 -30921.2145958355  -0.001588578845 0.00233211  0.00002407  0.0066067 0.0000
103 -30921.2173848411  -0.002789005615 0.00155357  0.00001631  0.0067014 0.0000
104 -30921.2210990256  -0.003714184488 0.00048206  0.00000536  0.0067734 0.0000
105 -30921.2212669239  -0.000167898252 0.00055078  0.00000576  0.0068205 0.0000
106 -30921.2185448468   0.002722077115 0.00147095  0.00001529  0.0068520 0.0000
107 -30921.2159727675   0.002572079222 0.00222800  0.00002343  0.0068790 0.0000
108 -30921.2143574397   0.001615327837 0.00279458  0.00002979  0.0069369 0.0000
109 -30921.2137369910   0.000620448664 0.00308091  0.00003342  0.0070012 0.0000
110 -30921.2136773565   0.000059634513 0.00318570  0.00003532  0.0070628 0.0000
111 -30921.2127681631   0.000909193455 0.00353715  0.00004013  0.0071145 0.0000
112 -30921.2104439942   0.002324168912 0.00426874  0.00004980  0.0071489 0.0000
113 -30921.2076761600   0.002767834139 0.00501083  0.00006086  0.0071499 0.0000
114 -30921.2062203886   0.001455771428 0.00528985  0.00006802  0.0071914 0.0000
115 -30921.2049893908   0.001230997826 0.00552310  0.00007641  0.0071605 0.0000
116 -30921.2042160924   0.000773298401 0.00544580  0.00008311  0.0070097 0.0000
117 -30921.2053955910  -0.001179498671 0.00549857  0.00009221  0.0066882 0.0000
118 -30921.2063253330  -0.000929741949 0.00554120  0.00008946  0.0061574 0.0000
119 -30921.2180830632  -0.011757730183 0.00614927  0.00009739  0.0053940 0.0000
               *** Restarting incremental Fock matrix formation ***
                                   *** Resetting DIIS ***
120 -30921.2273050557  -0.009221992528 0.00084361  0.00001183  0.0044044 0.0000
121 -30921.2395271756  -0.012222119927 0.00109848  0.00001404  0.0037482 0.0000
122 -30921.2225511936   0.016975982042 0.00140547  0.00001763  0.0035227 0.0000
123 -30921.2347697742  -0.012218580625 0.00237046  0.00002992  0.0033373 0.0000
124 -30921.2156285116   0.019141262655 0.00489811  0.00006279  0.0029723 0.0000
125 -30921.2156076285   0.000020883053 0.00519239  0.00006917  0.0024026 0.0000
126 -30921.2308435976  -0.015235969073 0.00245371  0.00003481  0.0016863 0.0000
127 -30921.2308327493   0.000010848267 0.00341734  0.00004689  0.0012287 0.0000
128 -30921.2325128390  -0.001680089670 0.00191889  0.00002480  0.0010089 0.0000
129 -30921.2347036425  -0.002190803523 0.00162407  0.00002116  0.0009300 0.0000
130 -30921.2333829640   0.001320678515 0.00105468  0.00001382  0.0009029 0.0000
131 -30921.2289839574   0.004399006553 0.00085460  0.00001164  0.0009085 0.0000
132 -30921.2303981693  -0.001414211845 0.00085671  0.00001185  0.0009138 0.0000
133 -30921.2291593935   0.001238775774 0.00089062  0.00001271  0.0009196 0.0000
134 -30921.2292300439  -0.000070650385 0.00094174  0.00001380  0.0009244 0.0000
135 -30921.2284411693   0.000788874589 0.00071010  0.00001114  0.0009266 0.0000
136 -30921.2289786329  -0.000537463602 0.00090865  0.00001464  0.0009123 0.0000
137 -30921.2286668411   0.000311791842 0.00063618  0.00001124  0.0009087 0.0000
138 -30921.2292382994  -0.000571458349 0.00104876  0.00001854  0.0008832 0.0000
139 -30921.2292923078  -0.000054008415 0.00042045  0.00000757  0.0008809 0.0000
               *** Restarting incremental Fock matrix formation ***
                                   *** Resetting DIIS ***
140 -30921.2295175940  -0.000225286229 0.00015425  0.00000280  0.0008276 0.0000
141 -30921.2291855521   0.000332041978 0.00018638  0.00000321  0.0007903 0.0000
142 -30921.2296933899  -0.000507837871 0.00025939  0.00000436  0.0007851 0.0000
143 -30921.2288358075   0.000857582429 0.00043174  0.00000717  0.0007731 0.0000
144 -30921.2303458745  -0.001510067021 0.00087425  0.00001439  0.0007480 0.0000
145 -30921.2292431366   0.001102737893 0.00057950  0.00000958  0.0007652 0.0000
146 -30921.2304843799  -0.001241243222 0.00094689  0.00001550  0.0007555 0.0000
147 -30921.2297028643   0.000781515580 0.00042845  0.00000716  0.0007740 0.0000
148 -30921.2317783964  -0.002075532113 0.00174134  0.00002842  0.0007395 0.0000
149 -30921.2338279996  -0.002049603165 0.00044373  0.00000701  0.0008025 0.0000
150 -30921.2275173261   0.006310673503 0.00095057  0.00001547  0.0007116 0.0000
151 -30921.2327443829  -0.005227056834 0.00176721  0.00002918  0.0007355 0.0000
152 -30921.2331848018  -0.000440418888 0.00022263  0.00000431  0.0007727 0.0000
153 -30921.2323998163   0.000784985481 0.00233274  0.00003901  0.0006697 0.0000
154 -30921.2360302996  -0.003630483297 0.00083224  0.00001340  0.0007604 0.0000
155 -30921.2260439237   0.009986375851 0.00187335  0.00003153  0.0006685 0.0000
156 -30921.2358218543  -0.009777930536 0.00163974  0.00002882  0.0007055 0.0000
157 -30921.2321629866   0.003658867692 0.00119410  0.00002180  0.0006694 0.0000
158 -30921.2356427316  -0.003479744981 0.00230418  0.00004183  0.0006085 0.0000
159 -30921.2370466457  -0.001403914139 0.00057744  0.00000950  0.0006293 0.0000
               *** Restarting incremental Fock matrix formation ***
                                   *** Resetting DIIS ***
160 -30921.2301068149   0.006939830851 0.00008806  0.00000198  0.0004854 0.0000
161 -30921.2320630756  -0.001956260709 0.00007124  0.00000165  0.0004795 0.0000
162 -30921.2286664089   0.003396666689 0.00011331  0.00000243  0.0004816 0.0000
163 -30921.2294952752  -0.000828866287 0.00018551  0.00000395  0.0004794 0.0000
164 -30921.2290511472   0.000444127993 0.00038770  0.00000819  0.0004764 0.0000
165 -30921.2309818056  -0.001930658455 0.00045307  0.00000955  0.0004921 0.0000
166 -30921.2290969788   0.001884826783 0.00040222  0.00000850  0.0004982 0.0000
167 -30921.2313104302  -0.002213451357 0.00073316  0.00001537  0.0004897 0.0000
168 -30921.2306746533   0.000635776934 0.00018666  0.00000410  0.0005045 0.0000
169 -30921.2324379317  -0.001763278480 0.00185824  0.00003894  0.0004586 0.0000
170 -30921.2385030732  -0.006065141453 0.00070652  0.00001429  0.0005454 0.0000
171 -30921.2260455129   0.012457560333 0.00144704  0.00002971  0.0004458 0.0000
172 -30921.2310900836  -0.005044570742 0.00119283  0.00002468  0.0004838 0.0000
173 -30921.2316136009  -0.000523517268 0.00118610  0.00002412  0.0004439 0.0000
174 -30921.2317760377  -0.000162436852 0.00116213  0.00002329  0.0004095 0.0000
175 -30921.2302918373   0.001484200438 0.00067890  0.00001344  0.0003801 0.0000
176 -30921.2322786289  -0.001986791613 0.00176798  0.00003442  0.0003448 0.0000
177 -30921.2445465126  -0.012267883700 0.00027797  0.00000517  0.0004004 0.0000
178 -30921.2336839120   0.010862600586 0.00042759  0.00000801  0.0002798 0.0000
179 -30921.2293371967   0.004346715283 0.00095268  0.00001799  0.0002995 0.0000
               *** Restarting incremental Fock matrix formation ***
                                   *** Resetting DIIS ***
180 -30921.2303878186  -0.001050621882 0.00005920  0.00000106  0.0003224 0.0000
181 -30921.2311787202  -0.000790901577 0.00008140  0.00000113  0.0002732 0.0000
182 -30921.2305051700   0.000673550217 0.00008352  0.00000107  0.0002556 0.0000
183 -30921.2303192717   0.000185898294 0.00010170  0.00000125  0.0002547 0.0000
184 -30921.2304099693  -0.000090697602 0.00014765  0.00000178  0.0002558 0.0000
185 -30921.2306214830  -0.000211513692 0.00026233  0.00000311  0.0002567 0.0000
186 -30921.2306362715  -0.000014788537 0.00033908  0.00000396  0.0002579 0.0000
187 -30921.2303666012   0.000269670327 0.00020159  0.00000234  0.0002691 0.0000
188 -30921.2305687782  -0.000202177027 0.00039555  0.00000450  0.0002663 0.0000
189 -30921.2304236448   0.000145133439 0.00014054  0.00000161  0.0002789 0.0000
190 -30921.2306722519  -0.000248607143 0.00049014  0.00000545  0.0002696 0.0000
191 -30921.2304431987   0.000229053192 0.00010291  0.00000119  0.0002881 0.0000
192 -30921.2306797648  -0.000236566120 0.00043274  0.00000472  0.0002737 0.0000
193 -30921.2305164240   0.000163340876 0.00022103  0.00000244  0.0002893 0.0000
194 -30921.2306553127  -0.000138888689 0.00033500  0.00000362  0.0002840 0.0000
195 -30921.2305150749   0.000140237775 0.00026838  0.00000291  0.0002904 0.0000
196 -30921.2305577871  -0.000042712247 0.00020568  0.00000223  0.0002897 0.0000
197 -30921.2304591585   0.000098628625 0.00034205  0.00000367  0.0002873 0.0000
198 -30921.2304291997   0.000029958825 0.00011087  0.00000124  0.0002946 0.0000
199 -30921.2304652976  -0.000036097939 0.00028504  0.00000305  0.0002849 0.0000
               *** Restarting incremental Fock matrix formation ***
                                   *** Resetting DIIS ***
200 -30921.2304264725   0.000038825143 0.00006830  0.00000079  0.0002913 0.0000
201 -30921.2304257179   0.000000754546 0.00007501  0.00000083  0.0002878 0.0000
202 -30921.2304302498  -0.000004531867 0.00008286  0.00000091  0.0002897 0.0000
203 -30921.2304297198   0.000000529966 0.00009370  0.00000102  0.0002904 0.0000
204 -30921.2304357155  -0.000005995655 0.00011014  0.00000120  0.0002904 0.0000
205 -30921.2304335650   0.000002150453 0.00009816  0.00000107  0.0002899 0.0000
                 **** Energy Check signals convergence ****

               *****************************************************
               *                     SUCCESS                       *
               *           SCF CONVERGED AFTER 206 CYCLES          *
               *****************************************************


----------------
TOTAL SCF ENERGY
----------------

Total Energy       :       -30921.23043357 Eh         -841409.45653 eV

Components:
Nuclear Repulsion  :         1120.42232490 Eh           30488.24145 eV
Electronic Energy  :       -32041.65275847 Eh         -871897.69798 eV
One Electron Energy:       -44222.68089812 Eh        -1203360.32489 eV
Two Electron Energy:        12181.02813965 Eh          331462.62691 eV

Virial components:
Potential Energy   :       -89437.66013385 Eh        -2433722.46030 eV
Kinetic Energy     :        58516.42970028 Eh         1592313.00377 eV
Virial Ratio       :            1.52841964


---------------
SCF CONVERGENCE
---------------

  Last Energy change         ...   -5.2351e-09  Tolerance :   1.0000e-08
  Last MAX-Density change    ...    8.9881e-05  Tolerance :   1.0000e-07
  Last RMS-Density change    ...    9.8181e-07  Tolerance :   5.0000e-09
  Last DIIS Error            ...    2.8971e-04  Tolerance :   5.0000e-07

             **** THE GBW FILE WAS UPDATED (/home/nikolayandreadi_2125/_scratch/MP2/PuCl3.gbw) ****
             **** DENSITY FILE WAS UPDATED (/home/nikolayandreadi_2125/_scratch/MP2/PuCl3.scfp.tmp) ****
             **** ENERGY FILE WAS UPDATED (/home/nikolayandreadi_2125/_scratch/MP2/PuCl3.en.tmp) ****
----------------------
UHF SPIN CONTAMINATION
----------------------

Expectation value of <S**2>     :     2.604532
Ideal value S*(S+1) for S=0.5   :     0.750000
Deviation                       :     1.854532

----------------
ORBITAL ENERGIES
----------------
                 SPIN UP ORBITALS
  NO   OCC          E(Eh)            E(eV) 
   0   1.0000   -4488.599231   -122140.9946 
   1   1.0000    -854.287946    -23246.3568 
   2   1.0000    -711.975571    -19373.8402 
   3   1.0000    -711.974330    -19373.8065 
   4   1.0000    -711.974116    -19373.8007 
   5   1.0000    -220.651824     -6004.2414 
   6   1.0000    -180.616812     -4914.8333 
   7   1.0000    -180.606822     -4914.5615 
   8   1.0000    -180.601601     -4914.4194 
   9   1.0000    -143.889240     -3915.4253 
  10   1.0000    -143.884156     -3915.2869 
  11   1.0000    -143.879827     -3915.1691 
  12   1.0000    -143.868022     -3914.8479 
  13   1.0000    -143.866481     -3914.8060 
  14   1.0000    -105.172919     -2861.9006 
  15   1.0000    -105.172549     -2861.8905 
  16   1.0000    -105.170615     -2861.8379 
  17   1.0000     -58.798494     -1599.9884 
  18   1.0000     -45.438659     -1236.4488 
  19   1.0000     -45.430331     -1236.2222 
  20   1.0000     -45.426414     -1236.1156 
  21   1.0000     -31.355753      -853.2334 
  22   1.0000     -31.353881      -853.1825 
  23   1.0000     -31.350971      -853.1033 
  24   1.0000     -31.344440      -852.9256 
  25   1.0000     -31.342950      -852.8850 
  26   1.0000     -16.937815      -460.9014 
  27   1.0000     -16.933881      -460.7943 
  28   1.0000     -16.930606      -460.7052 
  29   1.0000     -16.888253      -459.5527 
  30   1.0000     -16.884656      -459.4548 
  31   1.0000     -16.880535      -459.3427 
  32   1.0000     -16.873843      -459.1606 
  33   1.0000     -13.844959      -376.7405 
  34   1.0000     -10.598655      -288.4041 
  35   1.0000     -10.598242      -288.3928 
  36   1.0000     -10.596221      -288.3378 
  37   1.0000      -9.583047      -260.7680 
  38   1.0000      -9.535734      -259.4805 
  39   1.0000      -9.515582      -258.9321 
  40   1.0000      -8.000049      -217.6924 
  41   1.0000      -7.999689      -217.6826 
  42   1.0000      -7.999565      -217.6792 
  43   1.0000      -7.999542      -217.6786 
  44   1.0000      -7.999287      -217.6717 
  45   1.0000      -7.999169      -217.6684 
  46   1.0000      -7.997520      -217.6236 
  47   1.0000      -7.997325      -217.6183 
  48   1.0000      -7.997182      -217.6144 
  49   1.0000      -4.777434      -130.0006 
  50   1.0000      -4.741179      -129.0141 
  51   1.0000      -4.718881      -128.4073 
  52   1.0000      -4.637621      -126.1961 
  53   1.0000      -4.627613      -125.9237 
  54   1.0000      -2.356588       -64.1260 
  55   1.0000      -1.251774       -34.0625 
  56   1.0000      -1.226205       -33.3667 
  57   1.0000      -1.216022       -33.0897 
  58   1.0000      -1.056903       -28.7598 
  59   1.0000      -1.031505       -28.0687 
  60   1.0000      -1.024576       -27.8801 
  61   1.0000      -0.523019       -14.2321 
  62   1.0000      -0.519017       -14.1232 
  63   1.0000      -0.514696       -14.0056 
  64   1.0000      -0.485501       -13.2112 
  65   1.0000      -0.478368       -13.0171 
  66   1.0000      -0.471139       -12.8203 
  67   1.0000      -0.462955       -12.5976 
  68   1.0000      -0.458635       -12.4801 
  69   1.0000      -0.447662       -12.1815 
  70   1.0000      -0.445610       -12.1257 
  71   1.0000      -0.439474       -11.9587 
  72   1.0000      -0.435482       -11.8501 
  73   0.0000      -0.024000        -0.6531 
  74   0.0000       0.043289         1.1780 
  75   0.0000       0.050099         1.3633 
  76   0.0000       0.055122         1.5000 
  77   0.0000       0.097424         2.6510 
  78   0.0000       0.105323         2.8660 
  79   0.0000       0.114946         3.1278 
  80   0.0000       0.126656         3.4465 
  81   0.0000       0.161371         4.3911 
  82   0.0000       0.166248         4.5238 
  83   0.0000       0.169785         4.6201 
  84   0.0000       0.173097         4.7102 
  85   0.0000       0.179622         4.8878 
  86   0.0000       0.185830         5.0567 
  87   0.0000       0.192818         5.2469 
  88   0.0000       0.196352         5.3430 
  89   0.0000       0.206451         5.6178 
  90   0.0000       0.219002         5.9593 
  91   0.0000       0.225016         6.1230 
  92   0.0000       0.252620         6.8741 
  93   0.0000       0.392443        10.6789 
  94   0.0000       0.397142        10.8068 
  95   0.0000       0.408901        11.1268 
  96   0.0000       0.426071        11.5940 
  97   0.0000       0.435016        11.8374 
  98   0.0000       0.446720        12.1559 
  99   0.0000       0.452325        12.3084 
 100   0.0000       0.466795        12.7021 
 101   0.0000       0.470653        12.8071 
 102   0.0000       0.482586        13.1318 
 103   0.0000       0.543176        14.7806 
 104   0.0000       0.551088        14.9959 
 105   0.0000       0.563616        15.3368 
 106   0.0000       0.569149        15.4873 
 107   0.0000       0.572295        15.5729 
 108   0.0000       0.579354        15.7650 
 109   0.0000       0.599197        16.3050 
 110   0.0000       0.604301        16.4439 
 111   0.0000       0.632998        17.2247 
 112   0.0000       0.633609        17.2414 
 113   0.0000       0.652272        17.7492 
 114   0.0000       0.663327        18.0500 
 115   0.0000       0.665208        18.1012 
 116   0.0000       0.675812        18.3898 
 117   0.0000       0.683588        18.6014 
 118   0.0000       0.714812        19.4510 
 119   0.0000       0.719462        19.5775 
 120   0.0000       0.728845        19.8329 
 121   0.0000       0.749600        20.3976 
 122   0.0000       0.759303        20.6617 
 123   0.0000       0.766843        20.8669 
 124   0.0000       0.846487        23.0341 
 125   0.0000       0.851130        23.1604 
 126   0.0000       0.872096        23.7309 
 127   0.0000       0.880848        23.9691 
 128   0.0000       0.896956        24.4074 
 129   0.0000       0.926971        25.2242 
 130   0.0000       0.934448        25.4276 
 131   0.0000       0.985211        26.8089 
 132   0.0000       0.999035        27.1851 
 133   0.0000       1.241360        33.7791 
 134   0.0000       1.245053        33.8796 
 135   0.0000       1.255525        34.1646 
 136   0.0000       1.377574        37.4857 
 137   0.0000       1.392539        37.8929 
 138   0.0000       1.420713        38.6596 
 139   0.0000       1.439019        39.1577 
 140   0.0000       1.488569        40.5060 
 141   0.0000       1.521558        41.4037 
 142   0.0000       1.630721        44.3742 
 143   0.0000       1.782668        48.5089 
 144   0.0000       1.813356        49.3439 
 145   0.0000       1.814910        49.3862 
 146   0.0000       2.112115        57.4736 
 147   0.0000       2.116011        57.5796 
 148   0.0000       2.117067        57.6083 
 149   0.0000       2.149588        58.4933 
 150   0.0000       2.152758        58.5795 
 151   0.0000       2.161660        58.8218 
 152   0.0000       2.166331        58.9489 
 153   0.0000       2.170062        59.0504 
 154   0.0000       2.212718        60.2111 
 155   0.0000       2.237354        60.8815 
 156   0.0000       2.240913        60.9783 
 157   0.0000       2.243928        61.0604 
 158   0.0000       2.259009        61.4707 
 159   0.0000       2.268129        61.7189 
 160   0.0000       2.270201        61.7753 
 161   0.0000       2.273747        61.8718 
 162   0.0000       2.295989        62.4770 
 163   0.0000       2.301333        62.6224 
 164   0.0000       2.349312        63.9280 
 165   0.0000       2.350753        63.9672 
 166   0.0000       2.418716        65.8166 
 167   0.0000       2.420229        65.8578 
 168   0.0000       2.421656        65.8966 
 169   0.0000       2.423679        65.9517 
 170   0.0000       2.424152        65.9645 
 171   0.0000       2.429505        66.1102 
 172   0.0000       2.433401        66.2162 
 173   0.0000       2.436187        66.2920 
 174   0.0000       2.439754        66.3891 
 175   0.0000       2.452315        66.7309 
 176   0.0000       2.459400        66.9237 
 177   0.0000       2.467288        67.1383 
 178   0.0000       2.532270        68.9066 
 179   0.0000       2.549839        69.3846 
 180   0.0000       2.574242        70.0487 
 181   0.0000       2.596165        70.6452 
 182   0.0000       2.597624        70.6849 
 183   0.0000       2.622503        71.3619 
 184   0.0000       2.640891        71.8623 
 185   0.0000       2.680206        72.9321 
 186   0.0000       2.681178        72.9586 
 187   0.0000       2.683483        73.0213 
 188   0.0000       2.701511        73.5119 
 189   0.0000       2.711371        73.7801 
 190   0.0000       2.747067        74.7515 
 191   0.0000       2.747412        74.7609 
 192   0.0000       2.764727        75.2320 
 193   0.0000       2.784277        75.7640 
 194   0.0000       3.262532        88.7780 
 195   0.0000       3.288118        89.4742 
 196   0.0000       3.341064        90.9150 
 197   0.0000       4.247730       115.5866 
 198   0.0000       4.284305       116.5819 
 199   0.0000       4.323223       117.6409 
 200   0.0000       4.355379       118.5159 
 201   0.0000       4.393024       119.5403 
 202   0.0000       4.419958       120.2732 
 203   0.0000       4.637088       126.1816 
 204   0.0000       5.704737       155.2338 
 205   0.0000       5.713239       155.4651 
 206   0.0000       5.755193       156.6068 
 207   0.0000       8.278454       225.2682 
 208   0.0000       8.435173       229.5327 
 209   0.0000       8.458907       230.1786 
 210   0.0000       9.394300       255.6319 
 211   0.0000       9.420120       256.3345 
 212   0.0000       9.453886       257.2533 
 213   0.0000       9.569816       260.4079 
 214   0.0000       9.607372       261.4299 
 215   0.0000       9.835910       267.6487 
 216   0.0000      14.686472       399.6392 
 217   0.0000      14.706517       400.1847 
 218   0.0000      14.724666       400.6785 
 219   0.0000      14.747088       401.2887 
 220   0.0000      14.762950       401.7203 
 221   0.0000      14.787781       402.3960 
 222   0.0000      14.894547       405.3012 
 223   0.0000      22.959274       624.7536 
 224   0.0000      22.966821       624.9590 
 225   0.0000      22.997115       625.7833 
 226   0.0000      44.646113      1214.8825 
 227   0.0000      48.270749      1313.5139 
 228   0.0000      48.339273      1315.3785 
 229   0.0000      48.353168      1315.7566 
 230   0.0000      48.441031      1318.1475 
 231   0.0000      48.454708      1318.5196 
 232   0.0000      48.487490      1319.4117 
 233   0.0000      48.568490      1321.6158 
 234   0.0000      48.587406      1322.1305 
 235   0.0000      57.497850      1564.5961 
 236   0.0000      57.508705      1564.8914 
 237   0.0000      57.517606      1565.1336 
 238   0.0000      57.529243      1565.4503 
 239   0.0000      57.537269      1565.6687 
 240   0.0000      57.550734      1566.0351 
 241   0.0000      57.601385      1567.4134 
 242   0.0000     138.915600      3780.0857 
 243   0.0000     138.921426      3780.2442 
 244   0.0000     138.944463      3780.8711 
 245   0.0000     208.775890      5681.0808 
 246   0.0000     246.469170      6706.7671 
 247   0.0000     246.475405      6706.9368 
 248   0.0000     246.491308      6707.3695 
 249   0.0000     246.515908      6708.0389 
 250   0.0000     246.525483      6708.2994 
 251   0.0000     272.369352      7411.5469 
 252   0.0000     272.439077      7413.4442 
 253   0.0000     272.446633      7413.6498 
 254   0.0000     811.336723     22077.5946 
 255   0.0000     884.699417     24073.8950 
 256   0.0000     884.707720     24074.1210 
 257   0.0000     884.740902     24075.0239 
 258   0.0000    1122.608558     30547.7319 
 259   0.0000    1122.656051     30549.0242 
 260   0.0000    1122.659636     30549.1218 
 261   0.0000    2491.438849     67795.4977 
 262   0.0000    3900.352848    106133.9967 
 263   0.0000    3900.386137    106134.9026 
 264   0.0000    3900.387589    106134.9421 
 265   0.0000    6238.887218    169768.7521 
 266   0.0000   13300.934993    361936.8417 
 267   0.0000   25384.185966    690738.8166 
 268   0.0000   44711.860053   1216671.5664 
 269   0.0000   85164.249958   2317437.0576 

                 SPIN DOWN ORBITALS
  NO   OCC          E(Eh)            E(eV) 
   0   1.0000   -4488.599302   -122140.9965 
   1   1.0000    -854.287982    -23246.3578 
   2   1.0000    -711.975608    -19373.8412 
   3   1.0000    -711.974490    -19373.8108 
   4   1.0000    -711.974035    -19373.7984 
   5   1.0000    -220.644514     -6004.0425 
   6   1.0000    -180.605053     -4914.5134 
   7   1.0000    -180.603748     -4914.4778 
   8   1.0000    -180.590848     -4914.1268 
   9   1.0000    -143.879448     -3915.1588 
  10   1.0000    -143.878134     -3915.1231 
  11   1.0000    -143.864005     -3914.7386 
  12   1.0000    -143.863456     -3914.7237 
  13   1.0000    -143.856567     -3914.5362 
  14   1.0000    -105.172935     -2861.9011 
  15   1.0000    -105.172614     -2861.8923 
  16   1.0000    -105.170650     -2861.8389 
  17   1.0000     -58.794141     -1599.8699 
  18   1.0000     -45.434314     -1236.3305 
  19   1.0000     -45.427447     -1236.1437 
  20   1.0000     -45.422102     -1235.9982 
  21   1.0000     -31.351181      -853.1090 
  22   1.0000     -31.350067      -853.0787 
  23   1.0000     -31.344556      -852.9287 
  24   1.0000     -31.341085      -852.8343 
  25   1.0000     -31.338667      -852.7685 
  26   1.0000     -16.932018      -460.7436 
  27   1.0000     -16.925617      -460.5695 
  28   1.0000     -16.883932      -459.4351 
  29   1.0000     -16.882180      -459.3875 
  30   1.0000     -16.877627      -459.2636 
  31   1.0000     -16.875195      -459.1974 
  32   1.0000     -16.869400      -459.0397 
  33   1.0000     -13.818365      -376.0168 
  34   1.0000     -10.598672      -288.4045 
  35   1.0000     -10.598314      -288.3948 
  36   1.0000     -10.596261      -288.3389 
  37   1.0000      -9.526911      -259.2404 
  38   1.0000      -9.524679      -259.1797 
  39   1.0000      -9.469127      -257.6680 
  40   1.0000      -8.000069      -217.6929 
  41   1.0000      -7.999788      -217.6853 
  42   1.0000      -7.999772      -217.6849 
  43   1.0000      -7.999501      -217.6775 
  44   1.0000      -7.999372      -217.6740 
  45   1.0000      -7.999193      -217.6691 
  46   1.0000      -7.997751      -217.6299 
  47   1.0000      -7.997303      -217.6177 
  48   1.0000      -7.997130      -217.6130 
  49   1.0000      -4.709614      -128.1551 
  50   1.0000      -4.700699      -127.9125 
  51   1.0000      -4.615935      -125.6060 
  52   1.0000      -4.607997      -125.3900 
  53   1.0000      -4.565928      -124.2452 
  54   1.0000      -2.322078       -63.1869 
  55   1.0000      -1.228476       -33.4285 
  56   1.0000      -1.224725       -33.3265 
  57   1.0000      -1.166691       -31.7473 
  58   1.0000      -1.053385       -28.6641 
  59   1.0000      -1.029103       -28.0033 
  60   1.0000      -1.025700       -27.9107 
  61   1.0000      -0.522914       -14.2292 
  62   1.0000      -0.496173       -13.5016 
  63   1.0000      -0.482149       -13.1199 
  64   1.0000      -0.467581       -12.7235 
  65   1.0000      -0.463083       -12.6011 
  66   1.0000      -0.460634       -12.5345 
  67   1.0000      -0.454606       -12.3705 
  68   1.0000      -0.448531       -12.2051 
  69   1.0000      -0.446866       -12.1598 
  70   1.0000      -0.440688       -11.9917 
  71   1.0000      -0.432765       -11.7761 
  72   0.0000      -0.018830        -0.5124 
  73   0.0000       0.046310         1.2602 
  74   0.0000       0.054696         1.4884 
  75   0.0000       0.058984         1.6050 
  76   0.0000       0.104346         2.8394 
  77   0.0000       0.110246         3.0000 
  78   0.0000       0.114007         3.1023 
  79   0.0000       0.131393         3.5754 
  80   0.0000       0.164591         4.4788 
  81   0.0000       0.169952         4.6246 
  82   0.0000       0.173483         4.7207 
  83   0.0000       0.176649         4.8069 
  84   0.0000       0.182149         4.9565 
  85   0.0000       0.196036         5.3344 
  86   0.0000       0.198567         5.4033 
  87   0.0000       0.203949         5.5497 
  88   0.0000       0.210278         5.7220 
  89   0.0000       0.219295         5.9673 
  90   0.0000       0.227253         6.1839 
  91   0.0000       0.233476         6.3532 
  92   0.0000       0.255442         6.9509 
  93   0.0000       0.395100        10.7512 
  94   0.0000       0.397501        10.8165 
  95   0.0000       0.421659        11.4739 
  96   0.0000       0.424184        11.5426 
  97   0.0000       0.449477        12.2309 
  98   0.0000       0.449859        12.2413 
  99   0.0000       0.453720        12.3464 
 100   0.0000       0.473415        12.8823 
 101   0.0000       0.487337        13.2611 
 102   0.0000       0.492744        13.4082 
 103   0.0000       0.547190        14.8898 
 104   0.0000       0.555178        15.1072 
 105   0.0000       0.562559        15.3080 
 106   0.0000       0.566964        15.4279 
 107   0.0000       0.578508        15.7420 
 108   0.0000       0.579796        15.7770 
 109   0.0000       0.604871        16.4594 
 110   0.0000       0.606319        16.4988 
 111   0.0000       0.630356        17.1529 
 112   0.0000       0.640211        17.4210 
 113   0.0000       0.652654        17.7596 
 114   0.0000       0.663881        18.0651 
 115   0.0000       0.666038        18.1238 
 116   0.0000       0.682132        18.5618 
 117   0.0000       0.683777        18.6065 
 118   0.0000       0.715448        19.4683 
 119   0.0000       0.719795        19.5866 
 120   0.0000       0.731695        19.9104 
 121   0.0000       0.748776        20.3752 
 122   0.0000       0.758577        20.6419 
 123   0.0000       0.767183        20.8761 
 124   0.0000       0.846766        23.0417 
 125   0.0000       0.850688        23.1484 
 126   0.0000       0.873877        23.7794 
 127   0.0000       0.881360        23.9830 
 128   0.0000       0.897891        24.4329 
 129   0.0000       0.925271        25.1779 
 130   0.0000       0.934631        25.4326 
 131   0.0000       0.985294        26.8112 
 132   0.0000       0.999005        27.1843 
 133   0.0000       1.237729        33.6803 
 134   0.0000       1.248552        33.9748 
 135   0.0000       1.254822        34.1454 
 136   0.0000       1.426120        38.8067 
 137   0.0000       1.435848        39.0714 
 138   0.0000       1.437791        39.1243 
 139   0.0000       1.450222        39.4625 
 140   0.0000       1.483856        40.3778 
 141   0.0000       1.529908        41.6309 
 142   0.0000       1.608340        43.7651 
 143   0.0000       1.805179        49.1214 
 144   0.0000       1.814486        49.3747 
 145   0.0000       1.819696        49.5164 
 146   0.0000       2.112134        57.4741 
 147   0.0000       2.116062        57.5810 
 148   0.0000       2.117074        57.6085 
 149   0.0000       2.150667        58.5226 
 150   0.0000       2.152503        58.5726 
 151   0.0000       2.163920        58.8833 
 152   0.0000       2.167301        58.9752 
 153   0.0000       2.178735        59.2864 
 154   0.0000       2.228993        60.6540 
 155   0.0000       2.240353        60.9631 
 156   0.0000       2.244494        61.0758 
 157   0.0000       2.246778        61.1379 
 158   0.0000       2.259903        61.4951 
 159   0.0000       2.270960        61.7960 
 160   0.0000       2.272678        61.8427 
 161   0.0000       2.275937        61.9314 
 162   0.0000       2.295946        62.4759 
 163   0.0000       2.304130        62.6986 
 164   0.0000       2.350522        63.9610 
 165   0.0000       2.351764        63.9947 
 166   0.0000       2.418685        65.8158 
 167   0.0000       2.420098        65.8542 
 168   0.0000       2.421600        65.8951 
 169   0.0000       2.423680        65.9517 
 170   0.0000       2.424117        65.9636 
 171   0.0000       2.429564        66.1118 
 172   0.0000       2.433336        66.2144 
 173   0.0000       2.436360        66.2967 
 174   0.0000       2.439778        66.3897 
 175   0.0000       2.452256        66.7293 
 176   0.0000       2.459247        66.9195 
 177   0.0000       2.467761        67.1512 
 178   0.0000       2.535881        69.0048 
 179   0.0000       2.550198        69.3944 
 180   0.0000       2.576972        70.1230 
 181   0.0000       2.598627        70.7122 
 182   0.0000       2.603115        70.8343 
 183   0.0000       2.629061        71.5404 
 184   0.0000       2.640494        71.8515 
 185   0.0000       2.680679        72.9450 
 186   0.0000       2.681468        72.9665 
 187   0.0000       2.683863        73.0316 
 188   0.0000       2.703613        73.5691 
 189   0.0000       2.711485        73.7832 
 190   0.0000       2.747112        74.7527 
 191   0.0000       2.747516        74.7637 
 192   0.0000       2.764398        75.2231 
 193   0.0000       2.784409        75.7676 
 194   0.0000       3.259650        88.6996 
 195   0.0000       3.286530        89.4310 
 196   0.0000       3.342455        90.9528 
 197   0.0000       4.311599       117.3246 
 198   0.0000       4.318871       117.5225 
 199   0.0000       4.343674       118.1974 
 200   0.0000       4.382819       119.2626 
 201   0.0000       4.408938       119.9733 
 202   0.0000       4.426953       120.4635 
 203   0.0000       4.607815       125.3850 
 204   0.0000       5.704747       155.2341 
 205   0.0000       5.713186       155.4637 
 206   0.0000       5.755051       156.6029 
 207   0.0000       8.311721       226.1734 
 208   0.0000       8.443302       229.7539 
 209   0.0000       8.458585       230.1698 
 210   0.0000       9.421342       256.3677 
 211   0.0000       9.425890       256.4915 
 212   0.0000       9.482838       258.0411 
 213   0.0000       9.580521       260.6992 
 214   0.0000       9.603641       261.3284 
 215   0.0000       9.851109       268.0623 
 216   0.0000      14.733179       400.9102 
 217   0.0000      14.735198       400.9651 
 218   0.0000      14.748426       401.3251 
 219   0.0000      14.767935       401.8559 
 220   0.0000      14.775572       402.0638 
 221   0.0000      14.791873       402.5073 
 222   0.0000      14.870357       404.6430 
 223   0.0000      22.959240       624.7527 
 224   0.0000      22.966785       624.9580 
 225   0.0000      22.997079       625.7823 
 226   0.0000      44.651651      1215.0332 
 227   0.0000      48.284777      1313.8956 
 228   0.0000      48.341637      1315.4428 
 229   0.0000      48.353978      1315.7786 
 230   0.0000      48.453345      1318.4826 
 231   0.0000      48.454886      1318.5245 
 232   0.0000      48.500729      1319.7719 
 233   0.0000      48.572854      1321.7346 
 234   0.0000      48.586808      1322.1143 
 235   0.0000      57.522388      1565.2638 
 236   0.0000      57.523495      1565.2939 
 237   0.0000      57.530038      1565.4719 
 238   0.0000      57.539339      1565.7250 
 239   0.0000      57.543634      1565.8419 
 240   0.0000      57.551622      1566.0593 
 241   0.0000      57.588327      1567.0581 
 242   0.0000     138.915577      3780.0850 
 243   0.0000     138.921402      3780.2435 
 244   0.0000     138.944440      3780.8704 
 245   0.0000     208.778804      5681.1601 
 246   0.0000     246.474410      6706.9097 
 247   0.0000     246.475605      6706.9422 
 248   0.0000     246.497114      6707.5275 
 249   0.0000     246.517999      6708.0958 
 250   0.0000     246.524802      6708.2809 
 251   0.0000     272.375455      7411.7129 
 252   0.0000     272.440620      7413.4862 
 253   0.0000     272.446564      7413.6479 
 254   0.0000     811.337754     22077.6227 
 255   0.0000     884.699409     24073.8948 
 256   0.0000     884.707711     24074.1207 
 257   0.0000     884.740894     24075.0237 
 258   0.0000    1122.610047     30547.7724 
 259   0.0000    1122.656423     30549.0344 
 260   0.0000    1122.659573     30549.1201 
 261   0.0000    2491.439047     67795.5031 
 262   0.0000    3900.353060    106134.0025 
 263   0.0000    3900.386180    106134.9038 
 264   0.0000    3900.387553    106134.9411 
 265   0.0000    6238.887237    169768.7526 
 266   0.0000   13300.934982    361936.8414 
 267   0.0000   25384.185951    690738.8162 
 268   0.0000   44711.860037   1216671.5660 
 269   0.0000   85164.249940   2317437.0571 

                    ********************************
                    * MULLIKEN POPULATION ANALYSIS *
                    ********************************

--------------------------------------------
MULLIKEN ATOMIC CHARGES AND SPIN POPULATIONS
--------------------------------------------
   0 Pu:    1.543729    1.017176
   1 Cl:   -0.518389   -0.006046
   2 Cl:   -0.511264   -0.003696
   3 Cl:   -0.514075   -0.007433
Sum of atomic charges         :    0.0000000
Sum of atomic spin populations:    1.0000000

-----------------------------------------------------
MULLIKEN REDUCED ORBITAL CHARGES AND SPIN POPULATIONS
-----------------------------------------------------
CHARGE
  0 Pus       :    12.183169  s :    12.183169
      pz      :    10.043500  p :    30.135535
      px      :    10.047287
      py      :    10.044747
      dz2     :     6.174781  d :    30.948893
      dxz     :     6.152703
      dyz     :     6.158331
      dx2y2   :     6.261841
      dxy     :     6.201236
      f0      :     2.878541  f :    19.188674
      f+1     :     2.720837
      f-1     :     2.655198
      f+2     :     2.564799
      f-2     :     2.954545
      f+3     :     3.104441
      f-3     :     2.310314
  1 Cls       :     5.943992  s :     5.943992
      pz      :     3.828108  p :    11.552517
      px      :     3.867102
      py      :     3.857307
      dz2     :     0.005927  d :     0.020774
      dxz     :     0.004852
      dyz     :     0.005584
      dx2y2   :     0.001965
      dxy     :     0.002446
      f0      :     0.000192  f :     0.001106
      f+1     :     0.000182
      f-1     :     0.000252
      f+2     :     0.000154
      f-2     :     0.000229
      f+3     :     0.000055
      f-3     :     0.000041
  2 Cls       :     5.944665  s :     5.944665
      pz      :     3.871256  p :    11.543682
      px      :     3.870209
      py      :     3.802217
      dz2     :     0.002223  d :     0.021733
      dxz     :     0.000779
      dyz     :     0.005957
      dx2y2   :     0.006384
      dxy     :     0.006389
      f0      :     0.000111  f :     0.001185
      f+1     :     0.000036
      f-1     :     0.000186
      f+2     :     0.000134
      f-2     :     0.000086
      f+3     :     0.000331
      f-3     :     0.000301
  3 Cls       :     5.944710  s :     5.944710
      pz      :     3.871688  p :    11.546774
      px      :     3.795940
      py      :     3.879147
      dz2     :     0.002213  d :     0.021428
      dxz     :     0.006446
      dyz     :     0.000169
      dx2y2   :     0.006672
      dxy     :     0.005928
      f0      :     0.000108  f :     0.001163
      f+1     :     0.000203
      f-1     :     0.000015
      f+2     :     0.000193
      f-2     :     0.000023
      f+3     :     0.000356
      f-3     :     0.000264

SPIN
  0 Pus       :    -0.011565  s :    -0.011565
      pz      :     0.001274  p :     0.001689
      px      :    -0.000180
      py      :     0.000594
      dz2     :     0.010654  d :     0.013701
      dxz     :     0.007492
      dyz     :     0.002751
      dx2y2   :    -0.005406
      dxy     :    -0.001790
      f0      :     0.758171  f :     1.013350
      f+1     :     0.653753
      f-1     :    -0.042548
      f+2     :     0.506472
      f-2     :    -0.114797
      f+3     :    -0.775433
      f-3     :     0.027733
  1 Cls       :    -0.000495  s :    -0.000495
      pz      :    -0.006346  p :    -0.005619
      px      :    -0.000419
      py      :     0.001146
      dz2     :    -0.000138  d :     0.000071
      dxz     :     0.000155
      dyz     :    -0.000070
      dx2y2   :     0.000014
      dxy     :     0.000111
      f0      :     0.000006  f :    -0.000004
      f+1     :     0.000013
      f-1     :    -0.000045
      f+2     :     0.000005
      f-2     :     0.000010
      f+3     :     0.000006
      f-3     :     0.000002
  2 Cls       :    -0.000404  s :    -0.000404
      pz      :    -0.000754  p :    -0.003387
      px      :     0.002011
      py      :    -0.004644
      dz2     :     0.000039  d :     0.000099
      dxz     :     0.000053
      dyz     :     0.000249
      dx2y2   :    -0.000211
      dxy     :    -0.000032
      f0      :     0.000012  f :    -0.000004
      f+1     :     0.000001
      f-1     :     0.000002
      f+2     :     0.000014
      f-2     :     0.000008
      f+3     :    -0.000004
      f-3     :    -0.000037
  3 Cls       :    -0.000424  s :    -0.000424
      pz      :    -0.002820  p :    -0.007187
      px      :    -0.007223
      py      :     0.002856
      dz2     :     0.000195  d :     0.000185
      dxz     :     0.000229
      dyz     :    -0.000037
      dx2y2   :    -0.000115
      dxy     :    -0.000087
      f0      :     0.000010  f :    -0.000006
      f+1     :     0.000020
      f-1     :     0.000001
      f+2     :     0.000014
      f-2     :    -0.000003
      f+3     :    -0.000047
      f-3     :    -0.000000


                     *******************************
                     * LOEWDIN POPULATION ANALYSIS *
                     *******************************

-------------------------------------------
LOEWDIN ATOMIC CHARGES AND SPIN POPULATIONS
-------------------------------------------
   0 Pu:   -0.396026    1.011587
   1 Cl:    0.121413   -0.003638
   2 Cl:    0.140129   -0.002439
   3 Cl:    0.134484   -0.005510

----------------------------------------------------
LOEWDIN REDUCED ORBITAL CHARGES AND SPIN POPULATIONS
----------------------------------------------------
CHARGE
  0 Pus       :    12.316689  s :    12.316689
      pz      :    10.134509  p :    30.503848
      px      :    10.190443
      py      :    10.178896
      dz2     :     6.334115  d :    31.797441
      dxz     :     6.280877
      dyz     :     6.297701
      dx2y2   :     6.515109
      dxy     :     6.369639
      f0      :     2.951089  f :    19.778049
      f+1     :     2.792185
      f-1     :     2.732207
      f+2     :     2.655131
      f-2     :     3.004812
      f+3     :     3.215584
      f-3     :     2.427040
  1 Cls       :     5.593688  s :     5.593688
      pz      :     3.747419  p :    11.254272
      px      :     3.755294
      py      :     3.751560
      dz2     :     0.006788  d :     0.028332
      dxz     :     0.007006
      dyz     :     0.010214
      dx2y2   :     0.001361
      dxy     :     0.002962
      f0      :     0.000222  f :     0.002296
      f+1     :     0.000460
      f-1     :     0.000724
      f+2     :     0.000184
      f-2     :     0.000572
      f+3     :     0.000093
      f-3     :     0.000041
  2 Cls       :     5.587732  s :     5.587732
      pz      :     3.750097  p :    11.239956
      px      :     3.754121
      py      :     3.735738
      dz2     :     0.005328  d :     0.029717
      dxz     :     0.000632
      dyz     :     0.003945
      dx2y2   :     0.011304
      dxy     :     0.008508
      f0      :     0.000124  f :     0.002466
      f+1     :     0.000089
      f-1     :     0.000597
      f+2     :     0.000152
      f-2     :     0.000102
      f+3     :     0.000869
      f-3     :     0.000531
  3 Cls       :     5.589710  s :     5.589710
      pz      :     3.751036  p :    11.244246
      px      :     3.734587
      py      :     3.758623
      dz2     :     0.005216  d :     0.029158
      dxz     :     0.004268
      dyz     :     0.000227
      dx2y2   :     0.015507
      dxy     :     0.003939
      f0      :     0.000125  f :     0.002402
      f+1     :     0.000642
      f-1     :     0.000018
      f+2     :     0.000213
      f-2     :     0.000041
      f+3     :     0.001096
      f-3     :     0.000269

SPIN
  0 Pus       :    -0.013130  s :    -0.013130
      pz      :     0.002049  p :     0.001892
      px      :    -0.000477
      py      :     0.000320
      dz2     :     0.010203  d :     0.011265
      dxz     :     0.007433
      dyz     :     0.002062
      dx2y2   :    -0.006510
      dxy     :    -0.001922
      f0      :     0.756144  f :     1.011559
      f+1     :     0.652714
      f-1     :    -0.042279
      f+2     :     0.504917
      f-2     :    -0.114174
      f+3     :    -0.773422
      f-3     :     0.027660
  1 Cls       :    -0.000379  s :    -0.000379
      pz      :    -0.004365  p :    -0.003441
      px      :    -0.000370
      py      :     0.001294
      dz2     :    -0.000057  d :     0.000197
      dxz     :     0.000381
      dyz     :    -0.000388
      dx2y2   :     0.000042
      dxy     :     0.000219
      f0      :     0.000031  f :    -0.000014
      f+1     :     0.000028
      f-1     :    -0.000125
      f+2     :     0.000008
      f-2     :     0.000025
      f+3     :     0.000016
      f-3     :     0.000002
  2 Cls       :    -0.000173  s :    -0.000173
      pz      :    -0.000313  p :    -0.002500
      px      :     0.001359
      py      :    -0.003546
      dz2     :     0.000111  d :     0.000241
      dxz     :     0.000072
      dyz     :     0.000512
      dx2y2   :    -0.000468
      dxy     :     0.000015
      f0      :     0.000031  f :    -0.000007
      f+1     :     0.000003
      f-1     :     0.000010
      f+2     :     0.000035
      f-2     :     0.000016
      f+3     :    -0.000005
      f-3     :    -0.000097
  3 Cls       :    -0.000366  s :    -0.000366
      pz      :    -0.002374  p :    -0.005208
      px      :    -0.005068
      py      :     0.002235
      dz2     :     0.000245  d :     0.000095
      dxz     :     0.000459
      dyz     :    -0.000046
      dx2y2   :    -0.000451
      dxy     :    -0.000112
      f0      :     0.000026  f :    -0.000031
      f+1     :     0.000034
      f-1     :     0.000001
      f+2     :     0.000039
      f-2     :    -0.000005
      f+3     :    -0.000121
      f-3     :    -0.000006


                      *****************************
                      * MAYER POPULATION ANALYSIS *
                      *****************************

  NA   - Mulliken gross atomic population
  ZA   - Total nuclear charge
  QA   - Mulliken gross atomic charge
  VA   - Mayer's total valence
  BVA  - Mayer's bonded valence
  FA   - Mayer's free valence

  ATOM       NA         ZA         QA         VA         BVA        FA
  0 Pu    92.4563    94.0000     1.5437     7.2708     2.6207     4.6501
  1 Cl    17.5184    17.0000    -0.5184     0.8817     0.8815     0.0003
  2 Cl    17.5113    17.0000    -0.5113     0.8960     0.8959     0.0001
  3 Cl    17.5141    17.0000    -0.5141     0.8897     0.8896     0.0001

  Mayer bond orders larger than 0.1
B(  0-Pu,  1-Cl) :   0.8666 B(  0-Pu,  2-Cl) :   0.8800 B(  0-Pu,  3-Cl) :   0.8742 


-------
TIMINGS
-------

Total SCF time: 0 days 0 hours 5 min 39 sec 

Total time                  ....     339.902 sec
Sum of individual times     ....     337.504 sec  ( 99.3%)

Fock matrix formation       ....     312.702 sec  ( 92.0%)
Diagonalization             ....      15.596 sec  (  4.6%)
Density matrix formation    ....       0.505 sec  (  0.1%)
Population analysis         ....       0.087 sec  (  0.0%)
Initial guess               ....       0.043 sec  (  0.0%)
Orbital Transformation      ....       0.000 sec  (  0.0%)
Orbital Orthonormalization  ....       0.000 sec  (  0.0%)
DIIS solution               ....       8.571 sec  (  2.5%)


           ************************************************************
           *        Program running with 20 parallel MPI-processes    *
           *              working on a common directory               *
           ************************************************************

------------------------------------------------------------------------------
                                ORCA  MP2 
------------------------------------------------------------------------------

Freezing NCore=98 chemical core electrons
MP2 will be done in the AO integral direct mode
The Q1-step will be done using symmetric double matrices
Dimension of the basis                    ...  270
Memory devoted for MP2                    ... 31500 MB   
Memory needed for all in one shot         ...  152 MB
Number of MOs that can be treated together...  416      
MP2 density construction                  ... relaxed
The MP2 gradient is requested => amplitudes will be stored on disk
Total number of MOs              ...   24
Number of MOs treated per batch  ...    2 
Number of batches necessary      ...    1 
OPERATORS   0/  0 PASS   0
OPERATORS   0/  1 PASS   0
Total number of MOs              ...   24
Number of MOs treated per batch  ...    2 
Number of batches necessary      ...    1 
OPERATORS   1/  0 PASS   0
OPERATORS   1/  1 PASS   0

Correlation energy components
 E2 and T2 for alpha/alpha pairs :     -0.217805798 Eh
 E2 and T2 for beta/beta   pairs :     -0.214972788 Eh
 E2 and T2 for alpha/beta  pairs :     -0.898024013 Eh

-----------------------------------------------
 MP2 CORRELATION ENERGY   :     -1.330802599 Eh
-----------------------------------------------


---------------------
MP2 DENSITY FORMATION
---------------------

Completing the external part of the density      ... done
Storing the unrelaxed density                    ... done

Calculating G(D)                                 ... done
Completing the Lagrangian                        ... done
Solving the Z-vector equations                   ... 

------------------------------------------------------------------------------
                           ORCA CP-SCF CALCULATION
------------------------------------------------------------------------------

Input orbitals are from        ... /home/nikolayandreadi_2125/_scratch/MP2/PuCl3.gbw
Input Perturbation             ... /home/nikolayandreadi_2125/_scratch/MP2/PuCl3.pin.tmp
Wavefunction output            ... /home/nikolayandreadi_2125/_scratch/MP2/PuCl3.pout.tmp
Perturbation mode              ... Real perturbation
Solver                         ... DIIS
   MaxDIIS                     ... 20
   Levelshift                  ...    3.000e-01 Eh
Max. number of iterations      ... 5000
Convergence tolerance          ... 1.000e-08
Integral handling              ... Direct
Number of perturbations        ... 1
Number of operators            ... 2
Orbital ranges used for CP-SCF:
 Operator 0:  Orbitals   0... 72  to  73...269
 Operator 1:  Orbitals   0... 71  to  72...269
Variables per vector in CP-SCF ... 28637
Number of vectors sought       ... 1

Solving the CP-SCF equations by a DIIS algorithm

-----------------
CP-SCF ITERATIONS
-----------------
  Iteration   0: MaxR=  0.089039291
  Iteration   1: MaxR=  0.033682260
  Iteration   2: MaxR=  0.018690963
  Iteration   3: MaxR=  0.010847858
  Iteration   4: MaxR=  0.007267627
  Iteration   5: MaxR=  0.005247613
  Iteration   6: MaxR=  0.004157409
  Iteration   7: MaxR=  0.003484295
  Iteration   8: MaxR=  0.002863819
  Iteration   9: MaxR=  0.002370272
  Iteration  10: MaxR=  0.001908646
  Iteration  11: MaxR=  0.001515804
  Iteration  12: MaxR=  0.001341964
  Iteration  13: MaxR=  0.001241519
  Iteration  14: MaxR=  0.001172140
  Iteration  15: MaxR=  0.001103363
  Iteration  16: MaxR=  0.001057000
  Iteration  17: MaxR=  0.001014452
  Iteration  18: MaxR=  0.000972347
  Iteration  19: MaxR=  0.000941859
  Iteration  20: MaxR=  0.000925782
  Iteration  21: MaxR=  0.000913782
  Iteration  22: MaxR=  0.000905311
  Iteration  23: MaxR=  0.000896447
  Iteration  24: MaxR=  0.000889341
  Iteration  25: MaxR=  0.000882044
  Iteration  26: MaxR=  0.000872684
  Iteration  27: MaxR=  0.000866309
  Iteration  28: MaxR=  0.000863602
  Iteration  29: MaxR=  0.000861831
  Iteration  30: MaxR=  0.000860122
  Iteration  31: MaxR=  0.000858525
  Iteration  32: MaxR=  0.000857385
  Iteration  33: MaxR=  0.000857067
  Iteration  34: MaxR=  0.000856932
  Iteration  35: MaxR=  0.000856798
  Iteration  36: MaxR=  0.000856665
  Iteration  37: MaxR=  0.000856641
  Iteration  38: MaxR=  0.000856642
  Iteration  39: MaxR=  0.000856637
  Iteration  40: MaxR=  0.000856638
  Iteration  41: MaxR=  0.000856640
  Iteration  42: MaxR=  0.000856638
  Iteration  43: MaxR=  0.000856639
  Iteration  44: MaxR=  0.000856643
  Iteration  45: MaxR=  0.000856639
  Iteration  46: MaxR=  0.000856653
  Iteration  47: MaxR=  0.000856634
  Iteration  48: MaxR=  0.000856637
  Iteration  49: MaxR=  0.000856597
  Iteration  50: MaxR=  0.000856491
[...]
      pz      :    -0.005929  p :    -0.009275
      px      :    -0.000670
      py      :    -0.002676
      dz2     :    -0.000735  d :     0.000164
      dxz     :     0.000504
      dyz     :     0.000181
      dx2y2   :    -0.000030
      dxy     :     0.000244
      f0      :    -0.000119  f :     0.000070
      f+1     :     0.000090
      f-1     :     0.000013
      f+2     :     0.000003
      f-2     :     0.000067
      f+3     :     0.000001
      f-3     :     0.000015
  2 Cls       :    -0.000255  s :    -0.000255
      pz      :    -0.004444  p :    -0.004489
      px      :     0.001797
      py      :    -0.001841
      dz2     :     0.000274  d :     0.000398
      dxz     :     0.000065
      dyz     :     0.000463
      dx2y2   :    -0.000323
      dxy     :    -0.000080
      f0      :     0.000029  f :     0.000062
      f+1     :     0.000006
      f-1     :     0.000066
      f+2     :     0.000026
      f-2     :     0.000023
      f+3     :    -0.000036
      f-3     :    -0.000053
  3 Cls       :    -0.000376  s :    -0.000376
      pz      :     0.001711  p :    -0.002776
      px      :    -0.006721
      py      :     0.002233
      dz2     :     0.000096  d :     0.000023
      dxz     :     0.000656
      dyz     :    -0.000085
      dx2y2   :    -0.000680
      dxy     :     0.000036
      f0      :     0.000039  f :    -0.000081
      f+1     :    -0.000014
      f-1     :     0.000005
      f+2     :     0.000063
      f-2     :    -0.000019
      f+3     :    -0.000171
      f-3     :     0.000017


                      *****************************
                      * MAYER POPULATION ANALYSIS *
                      *****************************

  NA   - Mulliken gross atomic population
  ZA   - Total nuclear charge
  QA   - Mulliken gross atomic charge
  VA   - Mayer's total valence
  BVA  - Mayer's bonded valence
  FA   - Mayer's free valence

  ATOM       NA         ZA         QA         VA         BVA        FA
  0 Pu    92.5080    94.0000     1.4920     8.1233     2.4888     5.6345
  1 Cl    17.4963    17.0000    -0.4963     1.4362     0.8479     0.5883
  2 Cl    17.4981    17.0000    -0.4981     1.4353     0.8470     0.5883
  3 Cl    17.4976    17.0000    -0.4976     1.4332     0.8451     0.5881

  Mayer bond orders larger than 0.1
B(  0-Pu,  1-Cl) :   0.8307 B(  0-Pu,  2-Cl) :   0.8299 B(  0-Pu,  3-Cl) :   0.8283 



                *******************************************
                * RELAXED MP2 DENSITY POPULATION ANALYSIS *
                *******************************************

------------------------------------------------------------------------------
                           ORCA POPULATION ANALYSIS
------------------------------------------------------------------------------
Input electron density              ... /home/nikolayandreadi_2125/_scratch/MP2/PuCl3.pmp2re
Input spin density                  ... /home/nikolayandreadi_2125/_scratch/MP2/PuCl3.rmp2re
BaseName (.gbw .S,...)              ... /home/nikolayandreadi_2125/_scratch/MP2/PuCl3

                    ********************************
                    * MULLIKEN POPULATION ANALYSIS *
                    ********************************

------------------------------------------
MULLIKEN ATOMIC CHARGES AND SPIN DENSITIES
------------------------------------------
   0 Pu:    1.264692    1.025205
   1 Cl:   -0.420509   -0.012624
   2 Cl:   -0.422024   -0.005237
   3 Cl:   -0.422159   -0.007344
Sum of atomic charges       :    0.0000000
Sum of atomic spin densities:    1.0000000

---------------------------------------------------
MULLIKEN REDUCED ORBITAL CHARGES AND SPIN DENSITIES
---------------------------------------------------
CHARGE
  0 Pus       :    12.241758  s :    12.241758
      pz      :    10.014079  p :    30.055523
      px      :    10.020862
      py      :    10.020583
      dz2     :     6.235818  d :    31.224701
      dxz     :     6.208394
      dyz     :     6.211915
      dx2y2   :     6.310961
      dxy     :     6.257613
      f0      :     2.725069  f :    19.213326
      f+1     :     2.720140
      f-1     :     2.983239
      f+2     :     2.410515
      f-2     :     2.953762
      f+3     :     2.900535
      f-3     :     2.520066
  1 Cls       :     5.936984  s :     5.936984
      pz      :     3.758002  p :    11.356735
      px      :     3.808669
      py      :     3.790065
      dz2     :     0.026319  d :     0.117063
      dxz     :     0.024645
      dyz     :     0.025316
      dx2y2   :     0.020112
      dxy     :     0.020670
      f0      :     0.001549  f :     0.009727
      f+1     :     0.001487
      f-1     :     0.001603
      f+2     :     0.001349
      f-2     :     0.001444
      f+3     :     0.001149
      f-3     :     0.001146
  2 Cls       :     5.937392  s :     5.937392
      pz      :     3.811109  p :    11.357817
      px      :     3.806802
      py      :     3.739907
      dz2     :     0.021166  d :     0.117095
      dxz     :     0.019182
      dyz     :     0.024891
      dx2y2   :     0.025905
      dxy     :     0.025951
      f0      :     0.001265  f :     0.009719
      f+1     :     0.001130
      f-1     :     0.001441
      f+2     :     0.001334
      f-2     :     0.001271
      f+3     :     0.001689
      f-3     :     0.001590
  3 Cls       :     5.936853  s :     5.936853
      pz      :     3.814166  p :    11.358540
      px      :     3.726016
      py      :     3.818359
      dz2     :     0.021043  d :     0.117058
      dxz     :     0.025762
      dyz     :     0.018528
      dx2y2   :     0.026474
      dxy     :     0.025251
      f0      :     0.001272  f :     0.009708
      f+1     :     0.001464
      f-1     :     0.001089
      f+2     :     0.001423
      f-2     :     0.001191
      f+3     :     0.001691
      f-3     :     0.001577

SPIN
  0 Pus       :    -0.011857  s :    -0.011857
      pz      :     0.005006  p :     0.004327
      px      :    -0.002091
      py      :     0.001412
      dz2     :     0.018999  d :     0.037509
      dxz     :     0.009993
      dyz     :     0.018056
      dx2y2   :    -0.007886
      dxy     :    -0.001653
      f0      :     0.368759  f :     0.995225
      f+1     :     0.429346
      f-1     :     0.772020
      f+2     :     0.320094
      f-2     :    -0.214022
      f+3     :    -0.655718
      f-3     :    -0.025253
  1 Cls       :    -0.000737  s :    -0.000737
      pz      :    -0.006395  p :    -0.012244
      px      :    -0.002920
      py      :    -0.002930
      dz2     :    -0.000792  d :     0.000304
      dxz     :     0.000513
      dyz     :     0.000383
      dx2y2   :    -0.000051
      dxy     :     0.000252
      f0      :    -0.000070  f :     0.000053
      f+1     :     0.000061
      f-1     :     0.000016
      f+2     :    -0.000002
      f-2     :     0.000037
      f+3     :     0.000001
      f-3     :     0.000010
  2 Cls       :    -0.000541  s :    -0.000541
      pz      :    -0.005771  p :    -0.005067
      px      :     0.002588
      py      :    -0.001884
      dz2     :     0.000285  d :     0.000334
      dxz     :     0.000097
      dyz     :     0.000391
      dx2y2   :    -0.000343
      dxy     :    -0.000097
      f0      :     0.000018  f :     0.000037
      f+1     :     0.000005
      f-1     :     0.000041
      f+2     :     0.000015
      f-2     :     0.000017
      f+3     :    -0.000035
      f-3     :    -0.000026
  3 Cls       :    -0.000760  s :    -0.000760
      pz      :    -0.000374  p :    -0.006570
      px      :    -0.007772
      py      :     0.001576
      dz2     :     0.000136  d :     0.000027
      dxz     :     0.000528
      dyz     :    -0.000080
      dx2y2   :    -0.000726
      dxy     :     0.000169
      f0      :     0.000016  f :    -0.000041
      f+1     :     0.000006
      f-1     :     0.000004
      f+2     :     0.000026
      f-2     :    -0.000013
      f+3     :    -0.000092
      f-3     :     0.000011


                     *******************************
                     * LOEWDIN POPULATION ANALYSIS *
                     *******************************

-----------------------------------------
LOEWDIN ATOMIC CHARGES AND SPIN DENSITIES
-----------------------------------------
   0 Pu:   -0.647811    1.019244
   1 Cl:    0.218472   -0.010769
   2 Cl:    0.215919   -0.002941
   3 Cl:    0.213419   -0.005535

--------------------------------------------------
LOEWDIN REDUCED ORBITAL CHARGES AND SPIN DENSITIES
--------------------------------------------------
CHARGE
  0 Pus       :    12.363963  s :    12.363963
      pz      :    10.105070  p :    30.404293
      px      :    10.154099
      py      :    10.145124
      dz2     :     6.411429  d :    32.067650
      dxz     :     6.330457
      dyz     :     6.349758
      dx2y2   :     6.561741
      dxy     :     6.414264
      f0      :     2.808021  f :    19.811905
      f+1     :     2.795233
      f-1     :     3.064487
      f+2     :     2.498841
      f-2     :     2.997971
      f+3     :     3.012605
      f-3     :     2.634747
  1 Cls       :     5.576057  s :     5.576057
      pz      :     3.686476  p :    11.066699
      px      :     3.696308
      py      :     3.683915
      dz2     :     0.029708  d :     0.127286
      dxz     :     0.026677
      dyz     :     0.030357
      dx2y2   :     0.019567
      dxy     :     0.020977
      f0      :     0.001693  f :     0.011486
      f+1     :     0.001900
      f-1     :     0.002370
      f+2     :     0.001396
      f-2     :     0.001793
      f+3     :     0.001180
      f-3     :     0.001154
  2 Cls       :     5.577354  s :     5.577354
      pz      :     3.693526  p :    11.068215
      px      :     3.694618
      py      :     3.680070
      dz2     :     0.024697  d :     0.127046
      dxz     :     0.018979
      dyz     :     0.022971
      dx2y2   :     0.031721
      dxy     :     0.028679
      f0      :     0.001294  f :     0.011466
      f+1     :     0.001202
      f-1     :     0.001983
      f+2     :     0.001373
      f-2     :     0.001300
      f+3     :     0.002435
      f-3     :     0.001880
  3 Cls       :     5.577343  s :     5.577343
      pz      :     3.696754  p :    11.070565
      px      :     3.673500
      py      :     3.700311
      dz2     :     0.024505  d :     0.127224
      dxz     :     0.023959
      dyz     :     0.018506
      dx2y2   :     0.036834
      dxy     :     0.023420
      f0      :     0.001315  f :     0.011448
      f+1     :     0.002045
      f-1     :     0.001097
      f+2     :     0.001482
      f-2     :     0.001221
      f+3     :     0.002654
      f-3     :     0.001635

SPIN
  0 Pus       :    -0.012732  s :    -0.012732
      pz      :     0.005324  p :     0.004300
      px      :    -0.002615
      py      :     0.001591
      dz2     :     0.018333  d :     0.036031
      dxz     :     0.010673
      dyz     :     0.017903
      dx2y2   :    -0.009719
      dxy     :    -0.001159
      f0      :     0.366947  f :     0.991645
      f+1     :     0.428671
      f-1     :     0.770759
      f+2     :     0.318489
      f-2     :    -0.212963
      f+3     :    -0.655065
      f-3     :    -0.025194
  1 Cls       :    -0.000373  s :    -0.000373
      pz      :    -0.005391  p :    -0.010875
      px      :    -0.002619
      py      :    -0.002866
      dz2     :    -0.001187  d :     0.000366
      dxz     :     0.000864
      dyz     :     0.000377
      dx2y2   :    -0.000066
      dxy     :     0.000378
      f0      :    -0.000138  f :     0.000114
      f+1     :     0.000137
      f-1     :     0.000006
      f+2     :    -0.000001
      f-2     :     0.000088
      f+3     :     0.000003
      f-3     :     0.000019
  2 Cls       :    -0.000189  s :    -0.000189
      pz      :    -0.004655  p :    -0.003722
      px      :     0.002247
      py      :    -0.001315
      dz2     :     0.000481  d :     0.000853
      dxz     :     0.000150
      dyz     :     0.000705
      dx2y2   :    -0.000386
      dxy     :    -0.000098
      f0      :     0.000044  f :     0.000118
      f+1     :     0.000011
      f-1     :     0.000098
      f+2     :     0.000040
      f-2     :     0.000037
      f+3     :    -0.000065
      f-3     :    -0.000047
  3 Cls       :    -0.000371  s :    -0.000371
      pz      :    -0.000219  p :    -0.005069
      px      :    -0.005678
      py      :     0.000828
      dz2     :     0.000165  d :     0.000011
      dxz     :     0.000985
      dyz     :    -0.000133
      dx2y2   :    -0.001076
      dxy     :     0.000071
      f0      :     0.000042  f :    -0.000107
      f+1     :     0.000003
      f-1     :     0.000006
      f+2     :     0.000066
      f-2     :    -0.000025
      f+3     :    -0.000203
      f-3     :     0.000005


                      *****************************
                      * MAYER POPULATION ANALYSIS *
                      *****************************

  NA   - Mulliken gross atomic population
  ZA   - Total nuclear charge
  QA   - Mulliken gross atomic charge
  VA   - Mayer's total valence
  BVA  - Mayer's bonded valence
  FA   - Mayer's free valence

  ATOM       NA         ZA         QA         VA         BVA        FA
  0 Pu    92.7353    94.0000     1.2647     8.2260     2.9058     5.3202
  1 Cl    17.4205    17.0000    -0.4205     1.5656     0.9913     0.5743
  2 Cl    17.4220    17.0000    -0.4220     1.5651     0.9910     0.5741
  3 Cl    17.4222    17.0000    -0.4222     1.5623     0.9884     0.5739

  Mayer bond orders larger than 0.1
B(  0-Pu,  1-Cl) :   0.9694 B(  0-Pu,  2-Cl) :   0.9694 B(  0-Pu,  3-Cl) :   0.9670 



----------------------------------
MP2 DERIVATIVE INTEGRAL GENERATION
----------------------------------


Input Wavefunction Amplitudes       ... /home/nikolayandreadi_2125/_scratch/MP2/PuCl3.mp2tbb.tmp.proc19
Input Correlated Electron Density   ... /home/nikolayandreadi_2125/_scratch/MP2/PuCl3.pmp2re
Input Energy Weighted Density       ... /home/nikolayandreadi_2125/_scratch/MP2/PuCl3.wmp2.tmp
Input SCF Electron Density          ... /home/nikolayandreadi_2125/_scratch/MP2/PuCl3.scfp.tmp

One-Electron Terms    ...
                        ... One-Electron Terms done
Prescreening matrices              ... done

Batch handling in the gradient evaluation:
Memory available                      ... 31500.0 MB
Memory per occupied orbital in Q2     ...   26.1 MB
Memory per occupied orbital in Q3     ...    0.1 MB
Total memory requirement per |i>      ...   26.2 MB
Max. Number of orbitals possible      ...   1200
Number of orbitals treated per batch  ...     47
Number of batches to be done          ...      1
Batch   0: i=   49 ...    95

---------------------------------------
MP2 TOTAL ENERGY:   -30922.563517641 Eh
---------------------------------------

-----------------------------------
NORM OF THE MP2 GRADIENT:  0.000150
-----------------------------------

-------------------------   --------------------
FINAL SINGLE POINT ENERGY    -30922.563517641294
-------------------------   --------------------

                                *** OPTIMIZATION RUN DONE ***

                            ***************************************
                            *     ORCA property calculations      *
                            ***************************************

                                    ---------------------
                                    Active property flags
                                    ---------------------
   (+) Dipole Moment


------------------------------------------------------------------------------
                       ORCA ELECTRIC PROPERTIES CALCULATION
------------------------------------------------------------------------------

Dipole Moment Calculation                       ... on
Quadrupole Moment Calculation                   ... off
Polarizability Calculation                      ... off
GBWName                                         ... /home/nikolayandreadi_2125/_scratch/MP2/PuCl3.gbw
Electron density file                           ... /home/nikolayandreadi_2125/_scratch/MP2/PuCl3.scfp.tmp
The origin for moment calculation is the CENTER OF MASS  = ( 0.083380,  0.121858 -0.196295)

-------------
DIPOLE MOMENT
-------------
                                X             Y             Z
Electronic contribution:     -4.70385      -6.54494      11.64483
Nuclear contribution   :      3.87056       5.41226      -9.60517
                        -----------------------------------------
Total Dipole Moment    :     -0.83329      -1.13268       2.03966
                        -----------------------------------------
Magnitude (a.u.)       :      2.47741
Magnitude (Debye)      :      6.29708


                         *** MP2 UNRELAXED DENSITY ***

------------------------------------------------------------------------------
                       ORCA ELECTRIC PROPERTIES CALCULATION
------------------------------------------------------------------------------

Dipole Moment Calculation                       ... on
Quadrupole Moment Calculation                   ... off
Polarizability Calculation                      ... off
GBWName                                         ... /home/nikolayandreadi_2125/_scratch/MP2/PuCl3.gbw
Electron density file                           ... /home/nikolayandreadi_2125/_scratch/MP2/PuCl3.pmp2ur
The origin for moment calculation is the CENTER OF MASS  = ( 0.083380,  0.121858 -0.196295)

-------------
DIPOLE MOMENT
-------------
                                X             Y             Z
Electronic contribution:     -4.68749      -6.52065      11.60270
Nuclear contribution   :      3.87056       5.41226      -9.60517
                        -----------------------------------------
Total Dipole Moment    :     -0.81693      -1.10839       1.99753
                        -----------------------------------------
Magnitude (a.u.)       :      2.42611
Magnitude (Debye)      :      6.16668


                           *** MP2 RELAXED DENSITY ***

------------------------------------------------------------------------------
                       ORCA ELECTRIC PROPERTIES CALCULATION
------------------------------------------------------------------------------

Dipole Moment Calculation                       ... on
Quadrupole Moment Calculation                   ... off
Polarizability Calculation                      ... off
GBWName                                         ... /home/nikolayandreadi_2125/_scratch/MP2/PuCl3.gbw
Electron density file                           ... /home/nikolayandreadi_2125/_scratch/MP2/PuCl3.pmp2re
The origin for moment calculation is the CENTER OF MASS  = ( 0.083380,  0.121858 -0.196295)

-------------
DIPOLE MOMENT
-------------
                                X             Y             Z
Electronic contribution:     -4.60407      -6.39468      11.38067
Nuclear contribution   :      3.87056       5.41226      -9.60517
                        -----------------------------------------
Total Dipole Moment    :     -0.73351      -0.98242       1.77550
                        -----------------------------------------
Magnitude (a.u.)       :      2.15768
Magnitude (Debye)      :      5.48439


Timings for individual modules:

Sum of individual times         ...    33466.306 sec (= 557.772 min)
GTO integral calculation        ...       27.204 sec (=   0.453 min)   0.1 %
Relativistic integrals          ...       49.341 sec (=   0.822 min)   0.1 %
SCF iterations                  ...     5975.436 sec (=  99.591 min)  17.9 %
MP2 module                      ...    27371.631 sec (= 456.194 min)  81.8 %
Geometry relaxation             ...       42.694 sec (=   0.712 min)   0.1 %
                             ****ORCA TERMINATED NORMALLY****
TOTAL RUN TIME: 0 days 9 hours 17 minutes 51 seconds 720 msec
