
                                 *****************
                                 * O   R   C   A *
                                 *****************

           --- An Ab Initio, DFT and Semiempirical electronic structure package ---

                  #######################################################
                  #                        -***-                        #
                  #  Department of molecular theory and spectroscopy    #
                  #              Directorship: Frank Neese              #
                  # Max Planck Institute for Chemical Energy Conversion #
                  #                  D-45470 Muelheim/Ruhr              #
                  #                       Germany                       #
                  #                                                     #
                  #                  All rights reserved                #
                  #                        -***-                        #
                  #######################################################


                         Program Version 4.0.1.2 - RELEASE -


 With contributions from (in alphabetic order):
   Daniel Aravena         : Magnetic Properties
   Michael Atanasov       : Ab Initio Ligand Field Theory
   Ute Becker             : Parallelization
   Martin Brehm           : Molecular dynamics
   Dmytro Bykov           : SCF Hessian
   Vijay G. Chilkuri      : MRCI spin determinant printing
   Dipayan Datta          : RHF DLPNO-CCSD density
   Achintya Kumar Dutta   : EOM-CC, STEOM-CC
   Dmitry Ganyushin       : Spin-Orbit,Spin-Spin,Magnetic field MRCI
   Yang Guo               : DLPNO-NEVPT2, CIM, IAO-localization
   Andreas Hansen         : Spin unrestricted coupled pair/coupled cluster methods
   Lee Huntington         : MR-EOM, pCC
   Robert Izsak           : Overlap fitted RIJCOSX, COSX-SCS-MP3, EOM
   Christian Kollmar      : KDIIS, OOCD, Brueckner-CCSD(T), CCSD density
   Simone Kossmann        : Meta GGA functionals, TD-DFT gradient, OOMP2, MP2 Hessian
   Martin Krupicka        : AUTO-CI
   Dagmar Lenk            : GEPOL surface
   Dimitrios Liakos       : Extrapolation schemes; parallel MDCI
   Dimitrios Manganas     : ROCIS; embedding schemes
   Dimitrios Pantazis     : SARC Basis sets
   Taras Petrenko         : DFT Hessian,TD-DFT gradient, ASA, ECA, R-Raman, ABS, FL, XAS/XES, NRVS
   Peter Pinski           : DLPNO-MP2
   Christoph Reimann      : Effective Core Potentials
   Marius Retegan         : Local ZFS, SOC
   Christoph Riplinger    : Optimizer, TS searches, QM/MM, DLPNO-CCSD(T), (RO)-DLPNO pert. Triples
   Tobias Risthaus        : Range-separated hybrids, TD-DFT gradient, RPA, STAB
   Michael Roemelt        : Restricted open shell CIS
   Masaaki Saitow         : Open-shell DLPNO
   Barbara Sandhoefer     : DKH picture change effects
   Kantharuban Sivalingam : CASSCF convergence, NEVPT2, FIC-MRCI
   Georgi Stoychev        : AutoAux
   Boris Wezisla          : Elementary symmetry handling
   Frank Wennmohs         : Technical directorship


 We gratefully acknowledge several colleagues who have allowed us to
 interface, adapt or use parts of their codes:
   Stefan Grimme, W. Hujo, H. Kruse,             : VdW corrections, initial TS optimization,
                  C. Bannwarth                     DFT functionals, gCP, sTDA/sTD-DF
   Ed Valeev                                     : LibInt (2-el integral package), F12 methods
   Garnet Chan, S. Sharma, J. Yang, R. Olivares  : DMRG
   Ulf Ekstrom                                   : XCFun DFT Library
   Mihaly Kallay                                 : mrcc  (arbitrary order and MRCC methods)
   Andreas Klamt, Michael Diedenhofen            : otool_cosmo (COSMO solvation model)
   Jiri Pittner, Ondrej Demel                    : Mk-CCSD
   Frank Weinhold                                : gennbo (NPA and NBO analysis)
   Christopher J. Cramer and Donald G. Truhlar   : smd solvation model


 Your calculation uses the libint2 library for the computation of 2-el integrals
 For citations please refer to: http://libint.valeyev.net

 This ORCA versions uses:
   CBLAS   interface :  Fast vector & matrix operations
   LAPACKE interface :  Fast linear algebra routines
   SCALAPACK package :  Parallel linear algebra routines


Your calculation utilizes the basis: DKH-def2-TZVP
   Exponents from def2-TZVP [F. Weigend and R. Ahlrichs, Phys. Chem. Chem. Phys. 7, 3297 (2005)],
   recontracted for DKH2 by D. A. Pantazis.

Your calculation utilizes the auxiliary basis: SARC/J 
   decontracted def2/J up to Kr:
   F. Weigend, Phys. Chem. Chem. Phys. 8, 1057 (2006)
   and SARC auxiliary basis sets beyond Kr:
   D. A. Pantazis and F. Neese, J. Chem. Theory Comput. 5, 2229 (2009).
   D. A. Pantazis, X. Y. Chen, C. R. Landis and F. Neese, J. Chem. Theory Comput. 4, 908 (2008).
   D. A. Pantazis and F. Neese, Theor. Chem. Acc. 131, 1292 (2012).
   D. A. Pantazis and F. Neese, J. Chem. Theory Comput. 7, 677 (2011).

================================================================================
                                        WARNINGS
                       Please study these warnings very carefully!
================================================================================

Warning: TCutStore was < 0. Adjusted to Thresh (uncritical)

WARNING: In scalar relativistic gradient/hessian runs we need the one-center approximation
  ===> : %rel OneCenter is turned on

WARNING: The frozen-core approximation for MP2-gradient calculations is turned on by default.

WARNING: Geometry Optimization
  ===> : Switching off AutoStart
         For restart on a previous wavefunction, please use MOREAD

WARNING: Post HF methods need fully converged wavefunctions
  ===> : Setting SCFConvForced true
         You can overwrite this default with %scf ConvForced false 


INFO   : the flag for use of LIBINT has been found!

================================================================================
                                       INPUT FILE
================================================================================
NAME = /home/nikolayandreadi_2125/_scratch/MP2/PuO2_CO3.inp
|  1> !Opt MP2 DKH-def2-TZVP DKH SARC/J SlowConv
|  2> 
|  3> %pal
|  4> nproc 20
|  5> end
|  6> 
|  7> %maxcore 31500
|  8> 
|  9> %basis
| 10> newgto Pu "SARC-DKH-TZVP" end
| 11> end
| 12> 
| 13> %scf
| 14> MaxIter 2000
| 15> end
| 16> 
| 17> %method
| 18> Z_MaxIter 5000
| 19> end
| 20> 
| 21> * xyz 0 1
| 22>   Pu    -2.871401    0.025052    0.064281
| 23>   O     -1.164268   -1.107764    0.020041
| 24>   C     -0.346601   -0.024328    0.009752
| 25>   O     -1.115130    1.090777    0.004833
| 26>   O      0.851585   -0.053095    0.002593
| 27>   O     -2.919047    0.024127   -1.566885
| 28>   O     -2.819269    0.045232    1.695344
| 29>   **                         ****END OF INPUT****
================================================================================

                       *****************************
                       * Geometry Optimization Run *
                       *****************************

Geometry optimization settings:
Update method            Update   .... BFGS
Choice of coordinates    CoordSys .... Redundant Internals
Initial Hessian          InHess   .... Almoef's Model

Convergence Tolerances:
Energy Change            TolE     ....  5.0000e-06 Eh
Max. Gradient            TolMAXG  ....  3.0000e-04 Eh/bohr
RMS Gradient             TolRMSG  ....  1.0000e-04 Eh/bohr
Max. Displacement        TolMAXD  ....  4.0000e-03 bohr
RMS Displacement         TolRMSD  ....  2.0000e-03 bohr

------------------------------------------------------------------------------
                        ORCA OPTIMIZATION COORDINATE SETUP
------------------------------------------------------------------------------

The optimization will be done in new redundant internal coordinates
Making redundant internal coordinates   ...  (new redundants) done
Evaluating the initial hessian          ...  (Almloef) done
Evaluating the coordinates              ...  done
Calculating the B-matrix                .... done
Calculating the G-matrix                .... done
Diagonalizing the G-matrix              .... done
The first mode is                       ....   12
The number of degrees of freedom        ....   15

    -----------------------------------------------------------------
                    Redundant Internal Coordinates


    -----------------------------------------------------------------
         Definition                    Initial Value    Approx d2E/dq
    -----------------------------------------------------------------
      1. B(O   1,Pu  0)                  2.0493         0.166931   
      2. B(C   2,O   1)                  1.3574         0.630806   
      3. B(O   3,Pu  0)                  2.0552         0.163345   
      4. B(O   3,C   2)                  1.3543         0.638025   
      5. B(O   4,C   2)                  1.1986         1.130622   
      6. B(O   5,Pu  0)                  1.6319         0.773560   
      7. B(O   6,Pu  0)                  1.6320         0.773109   
      8. A(O   1,Pu  0,O   5)           90.1392         0.402043   
      9. A(O   3,Pu  0,O   5)           89.7898         0.400508   
     10. A(O   1,Pu  0,O   3)           64.7952         0.309160   
     11. A(O   3,Pu  0,O   6)           89.7250         0.400467   
     12. A(O   1,Pu  0,O   6)           90.1032         0.402002   
     13. A(Pu  0,O   1,C   2)           93.4829         0.364104   
     14. A(O   3,C   2,O   4)          125.9474         0.480381   
     15. A(O   1,C   2,O   3)          108.3846         0.431958   
     16. A(O   1,C   2,O   4)          125.6677         0.479374   
     17. A(Pu  0,O   3,C   2)           93.3173         0.363462   
     18. D(C   2,O   1,Pu  0,O   6)    -88.7574         0.001883   
     19. D(C   2,O   1,Pu  0,O   3)      0.8900         0.001883   
     20. D(C   2,O   1,Pu  0,O   5)     90.5922         0.001883   
     21. D(O   4,C   2,O   1,Pu  0)    178.8967         0.029269   
     22. D(O   3,C   2,O   1,Pu  0)     -1.2878         0.029269   
     23. D(C   2,O   3,Pu  0,O   5)    -91.1448         0.001867   
     24. D(C   2,O   3,Pu  0,O   1)     -0.8919         0.001867   
     25. D(Pu  0,O   3,C   2,O   4)   -178.9012         0.029995   
     26. D(Pu  0,O   3,C   2,O   1)      1.2839         0.029995   
     27. D(C   2,O   3,Pu  0,O   6)     89.3516         0.001867   
    -----------------------------------------------------------------

Number of atoms                         .... 7
Number of degrees of freedom            .... 27

         *************************************************************
         *                GEOMETRY OPTIMIZATION CYCLE   1            *
         *************************************************************
---------------------------------
CARTESIAN COORDINATES (ANGSTROEM)
---------------------------------
  Pu    -2.871401    0.025052    0.064281
  O     -1.164268   -1.107764    0.020041
  C     -0.346601   -0.024328    0.009752
  O     -1.115130    1.090777    0.004833
  O      0.851585   -0.053095    0.002593
  O     -2.919047    0.024127   -1.566885
  O     -2.819269    0.045232    1.695344

----------------------------
CARTESIAN COORDINATES (A.U.)
----------------------------
  NO LB      ZA    FRAG     MASS         X           Y           Z
   0 Pu   94.0000    0   244.000   -5.426162    0.047341    0.121473
   1 O     8.0000    0    15.999   -2.200148   -2.093371    0.037872
   2 C     6.0000    0    12.011   -0.654981   -0.045973    0.018429
   3 O     8.0000    0    15.999   -2.107290    2.061270    0.009133
   4 O     8.0000    0    15.999    1.609262   -0.100335    0.004900
   5 O     8.0000    0    15.999   -5.516199    0.045593   -2.960984
   6 O     8.0000    0    15.999   -5.327646    0.085476    3.203736

--------------------------------
INTERNAL COORDINATES (ANGSTROEM)
--------------------------------
 Pu     0   0   0     0.000000000000     0.00000000     0.00000000
 O      1   0   0     2.049276054402     0.00000000     0.00000000
 C      2   1   0     1.357394103607    93.48288579     0.00000000
 O      3   2   1     1.354296932518   108.38464332   358.71215237
 O      3   2   1     1.198552661407   125.66772237   178.89666016
 O      1   2   3     1.631861978385    90.13924894    90.59216577
 O      1   2   3     1.632020676276    90.10316958   271.24257729

---------------------------
INTERNAL COORDINATES (A.U.)
---------------------------
 Pu     0   0   0     0.000000000000     0.00000000     0.00000000
 O      1   0   0     3.872570515622     0.00000000     0.00000000
 C      2   1   0     2.565103111616    93.48288579     0.00000000
 O      3   2   1     2.559250306468   108.38464332   358.71215237
 O      3   2   1     2.264936287142   125.66772237   178.89666016
 O      1   2   3     3.083772227506    90.13924894    90.59216577
 O      1   2   3     3.084072123059    90.10316958   271.24257729

---------------------
BASIS SET INFORMATION
---------------------
There are 3 groups of distinct atoms

 Group   1 Type Pu  : 29s20p16d12f contracted to 21s13p10d7f pattern {911111111111111111111/8111111111111/7111111111/6111111}
 Group   2 Type O   : 11s6p2d1f contracted to 6s3p2d1f pattern {611111/411/11/1}
 Group   3 Type C   : 11s6p2d1f contracted to 6s3p2d1f pattern {611111/411/11/1}

Atom   0Pu   basis set group =>   1
Atom   1O    basis set group =>   2
Atom   2C    basis set group =>   3
Atom   3O    basis set group =>   2
Atom   4O    basis set group =>   2
Atom   5O    basis set group =>   2
Atom   6O    basis set group =>   2

INFORMATION: There is an auxiliary basis set but the global RI flag is NOT set

-------------------------------
AUXILIARY BASIS SET INFORMATION
-------------------------------
There are 3 groups of distinct atoms

 Group   1 Type Pu  : 33s10p8d6f4g2h1i contracted to 33s10p8d6f4g2h1i pattern {111111111111111111111111111111111/1111111111/11111111/111111/1111/11/1}
 Group   2 Type O   : 12s5p4d2f1g contracted to 12s5p4d2f1g pattern {111111111111/11111/1111/11/1}
 Group   3 Type C   : 12s5p4d2f1g contracted to 12s5p4d2f1g pattern {111111111111/11111/1111/11/1}

Atom   0Pu   basis set group =>   1
Atom   1O    basis set group =>   2
Atom   2C    basis set group =>   3
Atom   3O    basis set group =>   2
Atom   4O    basis set group =>   2
Atom   5O    basis set group =>   2
Atom   6O    basis set group =>   2


           ************************************************************
           *        Program running with 20 parallel MPI-processes    *
           *              working on a common directory               *
           ************************************************************
------------------------------------------------------------------------------
                           ORCA GTO INTEGRAL CALCULATION
------------------------------------------------------------------------------

                         BASIS SET STATISTICS AND STARTUP INFO

 # of primitive gaussian shells          ...  197
 # of primitive gaussian functions       ...  529
 # of contracted shells                  ...  123
 # of contracted basis functions         ...  351
 Highest angular momentum                ...    3
 Maximum contraction depth               ...    9
 Integral package used                   ... LIBINT
 Integral threshhold            Thresh   ...  2.500e-11
 Primitive cut-off              TCut     ...  2.500e-12


------------------------------ INTEGRAL EVALUATION ----------------------------


 * One electron integrals 
 Pre-screening matrix                    ... done
 Shell pair data                         ... done (   0.002 sec)

------------------------------------------------------------------------------
                          ORCA RELATIVISTIC HAMILTONIAN
------------------------------------------------------------------------------

Relativistic Method            ... DKH
Order of DKH treatment         ...   2
Treatment of potential         ... V(e,N)
Eps parameter for DKH          ...   0.00000000010000
Nucleus model                  ... Point Nucleus
Speed of light used            ... 137.03598950000000


            ************************************************
            *        DOUGLAS-KROLL-HESS HAMILTONIAN        *
            *   Programmed by FN according to literature   *
            *        procedures. Special thanks to         *
            *       B.A. Hess, M. Reiher and A. Wolf       *
            *     University Erlangen-Nuernberg/Bonn       *
            ************************************************

Uncontracting the basis (first version)        ... done
Number of contracted basis functions           ...  351
Number of uncontracted basis functions         ...  529
Initializing the DKH file                      ... done
One center approximation for DKH is active
Finding unique atoms                      ... 3 atom types
 ATOMIC NUMBER  94
          ... doing integrals          ... Computing the DKH transformation
          ... Transforming V and pVp to p**2 space
          ... First transformation of V and pVp
          ... Second transformation of Veff
          ... Adding kinetic energy
          ... Back transformation of Veff to r-space
          ... Recontracting the H-matrix
          ... Computing the DKH correction to the H-matrix
          ... adding submatrics to 1 actual atoms
 ATOMIC NUMBER   8
          ... doing integrals          ... Computing the DKH transformation
          ... Transforming V and pVp to p**2 space
          ... First transformation of V and pVp
          ... Second transformation of Veff
          ... Adding kinetic energy
          ... Back transformation of Veff to r-space
          ... Recontracting the H-matrix
          ... Computing the DKH correction to the H-matrix
          ... adding submatrics to 5 actual atoms
 ATOMIC NUMBER   6
          ... doing integrals          ... Computing the DKH transformation
          ... Transforming V and pVp to p**2 space
          ... First transformation of V and pVp
          ... Second transformation of Veff
          ... Adding kinetic energy
          ... Back transformation of Veff to r-space
          ... Recontracting the H-matrix
          ... Computing the DKH correction to the H-matrix
          ... adding submatrics to 1 actual atoms
Storing DKH matrices                           ... done
Getting S**(-1/2)                              ... done
Reading the original H-matrix                  ... done
Adding DKH correction to the H-matrix          ... done
Storing the new modified H-matrix              ... done


           ************************************************************
           *        Program running with 20 parallel MPI-processes    *
           *              working on a common directory               *
           ************************************************************
-------------------------------------------------------------------------------
                                 ORCA SCF
-------------------------------------------------------------------------------

------------
SCF SETTINGS
------------
Hamiltonian:
 Ab initio Hamiltonian  Method          .... Hartree-Fock(GTOs)

Relativistic Settings:
 Scalar relativistic method             .... Douglas-Kroll-Hess
 Order of DKH procedure    Order        ....    2
 Mode of DKH-treatment                  .... V=V(e,N)
 Speed of light used       Velit        ....       137.035989
 Cutoff-constant           Eps          ....            1e-10 


General Settings:
 Integral files         IntName         .... /home/nikolayandreadi_2125/_scratch/MP2/PuO2_CO3
 Hartree-Fock type      HFTyp           .... RHF
 Total Charge           Charge          ....    0
 Multiplicity           Mult            ....    1
 Number of Electrons    NEL             ....  140
 Basis Dimension        Dim             ....  351
 Nuclear Repulsion      ENuc            ....   1299.9856958865 Eh

Convergence Acceleration:
 DIIS                   CNVDIIS         .... on
   Start iteration      DIISMaxIt       ....     0
   Startup error        DIISStart       ....  0.200000
   # of expansion vecs  DIISMaxEq       ....     5
   Bias factor          DIISBfac        ....   1.050
   Max. coefficient     DIISMaxC        ....  10.000
 Newton-Raphson         CNVNR           .... off
 SOSCF                  CNVSOSCF        .... off
 Level Shifting         CNVShift        .... on
   Level shift para.    LevelShift      ....    0.2500
   Turn off err/grad.   ShiftErr        ....    0.0000
 Zerner damping         CNVZerner       .... off
 Static damping         CNVDamp         .... on
   Fraction old density DampFac         ....    0.8500
   Max. Damping (<1)    DampMax         ....    0.9800
   Min. Damping (>=0)   DampMin         ....    0.0000
   Turn off err/grad.   DampErr         ....    0.0300
 Fernandez-Rico         CNVRico         .... off

SCF Procedure:
 Maximum # iterations   MaxIter         ....  2000
 SCF integral mode      SCFMode         .... Direct
   Integral package                     .... LIBINT
 Reset frequeny         DirectResetFreq ....    20
 Integral Threshold     Thresh          ....  2.500e-11 Eh
 Primitive CutOff       TCut            ....  2.500e-12 Eh

Convergence Tolerance:
 Convergence Check Mode ConvCheckMode   .... Total+1el-Energy
 Convergence forced     ConvForced      .... 1
 Energy Change          TolE            ....  1.000e-08 Eh
 1-El. energy change                    ....  1.000e-05 Eh
 DIIS Error             TolErr          ....  5.000e-07


Diagonalization of the overlap matrix:
Smallest eigenvalue                        ... 2.094e-04
Time for diagonalization                   ...    0.026 sec
Threshold for overlap eigenvalues          ... 1.000e-08
Number of eigenvalues below threshold      ... 0
Time for construction of square roots      ...    0.016 sec
Total time needed                          ...    0.043 sec

-------------------
DFT GRID GENERATION
-------------------

General Integration Accuracy     IntAcc      ...  4.340
Radial Grid Type                 RadialGrid  ... Gauss-Chebyshev
Angular Grid (max. acc.)         AngularGrid ... Lebedev-110
Angular grid pruning method      GridPruning ... 3 (G Style)
Weight generation scheme         WeightScheme... Becke
Basis function cutoff            BFCut       ...    1.0000e-11
Integration weight cutoff        WCut        ...    1.0000e-14
Grids for H and He will be reduced by one unit

# of grid points (after initial pruning)     ...  14180 (   0.0 sec)
# of grid points (after weights+screening)   ...  13651 (   0.0 sec)
nearest neighbour list constructed           ...    0.0 sec
Grid point re-assignment to atoms done       ...    0.0 sec
Grid point division into batches done        ...    0.0 sec
Reduced shell lists constructed in    0.0 sec

Total number of grid points                  ...    13651
Total number of batches                      ...      217
Average number of points per batch           ...       62
Average number of grid points per atom       ...     1950
Average number of shells per batch           ...    56.75 (46.14%)
Average number of basis functions per batch  ...   180.92 (51.54%)
Average number of large shells per batch     ...    46.92 (82.67%)
Average number of large basis fcns per batch ...   149.08 (82.40%)
Maximum spatial batch extension              ...  28.35, 50.82,  3.06 au
Average spatial batch extension              ...   0.31,  0.45,  0.12 au

Time for grid setup =    0.056 sec

------------------------------
INITIAL GUESS: MODEL POTENTIAL
------------------------------
Loading DKH relativistic densities                 ... done
Calculating cut-offs                               ... done
Setting up the integral package                    ... done
Initializing the effective Hamiltonian             ... done
Starting the Coulomb interaction                   ... done (   0.0 sec)
Reading the grid                                   ... done
Mapping shells                                     ... done
Starting the XC term evaluation                    ... done (   0.0 sec)
Transforming the Hamiltonian                       ... done (   0.0 sec)
Diagonalizing the Hamiltonian                      ... done (   0.0 sec)
Back transforming the eigenvectors                 ... done (   0.0 sec)
Now organizing SCF variables                       ... done
                      ------------------
                      INITIAL GUESS DONE (   0.2 sec)
                      ------------------
--------------
SCF ITERATIONS
--------------
ITER       Energy         Delta-E        Max-DP      RMS-DP      [F,P]     Damp
               ***  Starting incremental Fock matrix formation  ***
  0 -29947.6304851761   0.000000000000 0.45438281  0.00427497  8.5739778 0.8500
  1 -29948.5541242499  -0.923639073848 0.25860145  0.00236377  7.2947147 0.8500
                               ***Turning on DIIS***
  2 -29948.7608252111  -0.206700961131 0.17147310  0.00160836  6.2054100 0.8500
  3 -29946.6613399506   2.099485260442 0.13921757  0.00130357  5.2785112 0.8500
  4 -29953.7498001946  -7.088460243966 0.15450380  0.00134213  4.4889682 0.8500
  5 -29953.1717345735   0.578065621139 0.13405298  0.00120522  3.8166258 0.8500
  6 -29951.3905824817   1.781152091706 0.10700341  0.00101914  3.2445542 0.8500
  7 -29950.5628849882   0.827697493554 0.08546698  0.00086325  2.7580471 0.8500
  8 -29949.2736215885   1.289263399725 0.06667969  0.00072594  2.3444789 0.8500
  9 -29949.8371257741  -0.563504185644 0.05707614  0.00063250  1.9929136 0.8500
 10 -29950.3218266691  -0.484700895035 0.04926775  0.00055284  1.6940851 0.8500
 11 -29950.3715486248  -0.049721955613 0.04136719  0.00047841  1.4400728 0.8500
 12 -29950.3031954544   0.068353170394 0.03428850  0.00041209  1.2241447 0.8500
 13 -29950.2501235617   0.053071892646 0.02841653  0.00035503  1.0405895 0.8500
 14 -29950.3408207731  -0.090697211348 0.02392391  0.00030728  0.8845553 0.8500
 15 -29950.4530399158  -0.112219142691 0.02024889  0.00026645  0.7519194 0.8500
 16 -29950.5149828432  -0.061942927427 0.01703593  0.00023087  0.6391731 0.8500
 17 -29950.5459807449  -0.030997901740 0.01437569  0.00019998  0.5433325 0.8500
 18 -29950.5761099684  -0.030129223487 0.01226711  0.00017343  0.4618621 0.8500
 19 -29950.6174100002  -0.041300031779 0.01046975  0.00015074  0.3926074 0.8500
               *** Restarting incremental Fock matrix formation ***
                                   *** Resetting DIIS ***
 20 -29950.7690801748  -0.151670174600 0.00979850  0.00011998  0.3337372 0.8500
 21 -29950.7886718662  -0.019591691438 0.00799805  0.00010309  0.2838814 0.8500
 22 -29950.7900520274  -0.001380161153 0.00640429  0.00009190  0.2414189 0.8500
 23 -29950.7839521473   0.006099880109 0.00549521  0.00008259  0.2052541 0.8500
 24 -29950.7859617815  -0.002009634241 0.00471266  0.00007416  0.1744849 0.8500
 25 -29950.7872417807  -0.001279999233 0.00403900  0.00006671  0.1483201 0.8500
 26 -29950.7962360915  -0.008994310796 0.00346155  0.00006034  0.1260788 0.8500
 27 -29950.8089093246  -0.012673233014 0.00296627  0.00005476  0.1071728 0.8500
 28 -29950.8212421191  -0.012332794529 0.00254167  0.00004985  0.0911018 0.8500
 29 -29950.8321715585  -0.010929439377 0.00223858  0.00004554  0.0774407 0.8500
 30 -29950.8416942363  -0.009522677825 0.00228302  0.00004174  0.0658280 0.8500
 31 -29950.8503206631  -0.008626426796 0.00231116  0.00003842  0.0559567 0.8500
 32 -29950.8582430765  -0.007922413424 0.00232594  0.00003550  0.0475655 0.8500
 33 -29950.8654968510  -0.007253774500 0.00232994  0.00003295  0.0404326 0.8500
 34 -29950.8720656665  -0.006568815534 0.00232537  0.00003072  0.0343693 0.8500
 35 -29950.8779423197  -0.005876653166 0.01542817  0.00019181  0.0292152 0.0000
 36 -29950.9296749922  -0.051732672517 0.00467447  0.00004055  0.0121762 0.0000
 37 -29950.9253070875   0.004367904705 0.00777968  0.00006474  0.0113423 0.0000
 38 -29950.9031775530   0.022129534496 0.01723282  0.00013849  0.0099029 0.0000
 39 -29950.9297436560  -0.026566102970 0.01283371  0.00010321  0.0067380 0.0000
               *** Restarting incremental Fock matrix formation ***
                                   *** Resetting DIIS ***
 40 -29950.9334194561  -0.003675800093 0.00167984  0.00001873  0.0050947 0.0000
 41 -29950.9366081842  -0.003188728082 0.00177944  0.00001881  0.0046842 0.0000
 42 -29950.9460750357  -0.009466851567 0.00233475  0.00002125  0.0046164 0.0000
 43 -29950.9257766813   0.020298354459 0.00484380  0.00004180  0.0043455 0.0000
 44 -29950.9369085452  -0.011131863910 0.00928714  0.00007892  0.0035470 0.0000
 45 -29950.9204234230   0.016485122160 0.00440731  0.00003961  0.0022167 0.0000
 46 -29950.9338594063  -0.013435983245 0.00398427  0.00003761  0.0020456 0.0000
 47 -29950.9304485902   0.003410816116 0.00185647  0.00002117  0.0021513 0.0000
 48 -29950.9320216651  -0.001573074958 0.00124803  0.00001184  0.0022571 0.0000
 49 -29950.9340442657  -0.002022600635 0.00054574  0.00000431  0.0023526 0.0000
 50 -29950.9350728827  -0.001028616960 0.00025003  0.00000196  0.0024151 0.0000
 51 -29950.9369736336  -0.001900750933 0.00023481  0.00000214  0.0024401 0.0000
 52 -29950.9366455694   0.000328064281 0.00022773  0.00000226  0.0024436 0.0000
 53 -29950.9352351940   0.001410375382 0.00057448  0.00000480  0.0024487 0.0000
 54 -29950.9340812135   0.001153980498 0.00055185  0.00000418  0.0024786 0.0000
 55 -29950.9333547305   0.000726483013 0.00009077  0.00000087  0.0025169 0.0000
 56 -29950.9319074287   0.001447301805 0.00007936  0.00000071  0.0025407 0.0000
 57 -29950.9321142547  -0.000206826047 0.00037029  0.00000285  0.0025426 0.0000
 58 -29950.9339142670  -0.001800012335 0.00051782  0.00000393  0.0025519 0.0000
 59 -29950.9354185715  -0.001504304473 0.00034683  0.00000257  0.0025751 0.0000
               *** Restarting incremental Fock matrix formation ***
                                   *** Resetting DIIS ***
 60 -29950.9342111874   0.001207384154 0.00090721  0.00000668  0.0026011 0.0000
 61 -29950.9337200350   0.000491152376 0.00074336  0.00000545  0.0026423 0.0000
 62 -29950.9345685893  -0.000848554322 0.00004068  0.00000049  0.0026815 0.0000
 63 -29950.9338036526   0.000764936725 0.00026630  0.00000195  0.0027059 0.0000
 64 -29950.9336172729   0.000186379693 0.00007857  0.00000058  0.0027011 0.0000
 65 -29950.9343766227  -0.000759349830 0.00086411  0.00000634  0.0026935 0.0000
 66 -29950.9345292631  -0.000152640416 0.00071013  0.00000519  0.0027174 0.0000
 67 -29950.9340629603   0.000466302808 0.00026433  0.00000197  0.0027591 0.0000
 68 -29950.9346196471  -0.000556686802 0.00016480  0.00000122  0.0027779 0.0000
 69 -29950.9347744473  -0.000154800182 0.00037604  0.00000273  0.0027788 0.0000
 70 -29950.9342677966   0.000506650744 0.00048622  0.00000355  0.0027892 0.0000
 71 -29950.9338851316   0.000382665014 0.00035604  0.00000262  0.0028133 0.0000
 72 -29950.9339101793  -0.000025047746 0.00005863  0.00000048  0.0028402 0.0000
 73 -29950.9337817213   0.000128457988 0.00038382  0.00000280  0.0028530 0.0000
 74 -29950.9340249604  -0.000243239039 0.00037713  0.00000275  0.0028630 0.0000
 75 -29950.9345600589  -0.000535098548 0.00034286  0.00000251  0.0028815 0.0000
 76 -29950.9349916777  -0.000431618846 0.00020802  0.00000154  0.0029024 0.0000
 77 -29950.9351231730  -0.000131495293 0.00016263  0.00000120  0.0029202 0.0000
 78 -29950.9349147119   0.000208461108 0.00038142  0.00000278  0.0029325 0.0000
 79 -29950.9342721419   0.000642570041 0.00039894  0.00000291  0.0029477 0.0000
               *** Restarting incremental Fock matrix formation ***
                                   *** Resetting DIIS ***
 80 -29950.9343102795  -0.000038137616 0.00102784  0.00000751  0.0029702 0.0000
 81 -29950.9344634085  -0.000153128971 0.00082290  0.00000599  0.0030115 0.0000
 82 -29950.9342963784   0.000167030070 0.00003774  0.00000053  0.0030573 0.0000
 83 -29950.9345600449  -0.000263666487 0.00000537  0.00000007  0.0030819 0.0000
 84 -29950.9346773926  -0.000117347707 0.00000351  0.00000003  0.0030848 0.0000
 85 -29950.9346933758  -0.000015983180 0.00087690  0.00000640  0.0030836 0.0000
 86 -29950.9344098417   0.000283534086 0.00057523  0.00000424  0.0031054 0.0000
 87 -29950.9340100079   0.000399833822 0.00026074  0.00000194  0.0031507 0.0000
 88 -29950.9338695534   0.000140454442 0.00033032  0.00000243  0.0031669 0.0000
 89 -29950.9339236396  -0.000054086202 0.00034226  0.00000250  0.0031727 0.0000
 90 -29950.9342003256  -0.000276685958 0.00058516  0.00000428  0.0031885 0.0000
 91 -29950.9346049604  -0.000404634797 0.00029627  0.00000220  0.0032133 0.0000
 92 -29950.9350717546  -0.000466794212 0.00006310  0.00000050  0.0032414 0.0000
 93 -29950.9351845297  -0.000112775098 0.00049867  0.00000365  0.0032513 0.0000
 94 -29950.9347257202   0.000458809485 0.00043872  0.00000321  0.0032651 0.0000
 95 -29950.9341828535   0.000542866746 0.00032377  0.00000238  0.0032896 0.0000
 96 -29950.9335743703   0.000608483195 0.00019989  0.00000148  0.0033128 0.0000
 97 -29950.9332069523   0.000367417928 0.00023132  0.00000170  0.0033312 0.0000
 98 -29950.9335590467  -0.000352094376 0.00046644  0.00000342  0.0033451 0.0000
 99 -29950.9344369610  -0.000877914288 0.00041343  0.00000304  0.0033635 0.0000
               *** Restarting incremental Fock matrix formation ***
                                   *** Resetting DIIS ***
100 -29950.9344384384  -0.000001477361 0.00116200  0.00000855  0.0033882 0.0000
101 -29950.9342653951   0.000173043223 0.00092849  0.00000682  0.0034366 0.0000
102 -29950.9345247935  -0.000259398363 0.00004620  0.00000066  0.0034875 0.0000
103 -29950.9343565427   0.000168250765 0.00000921  0.00000009  0.0035152 0.0000
104 -29950.9342924580   0.000064084765 0.00000356  0.00000003  0.0035183 0.0000
105 -29950.9343688328  -0.000076374818 0.00100436  0.00000740  0.0035170 0.0000
106 -29950.9344228933  -0.000054060481 0.00063404  0.00000472  0.0035423 0.0000
107 -29950.9345393676  -0.000116474341 0.00032709  0.00000245  0.0035932 0.0000
108 -29950.9347739523  -0.000234584721 0.00037277  0.00000277  0.0036095 0.0000
109 -29950.9347271620   0.000046790385 0.00042088  0.00000310  0.0036156 0.0000
110 -29950.9346025872   0.000124574733 0.00065892  0.00000487  0.0036346 0.0000
111 -29950.9343822030   0.000220384172 0.00029491  0.00000222  0.0036641 0.0000
112 -29950.9341289934   0.000253209630 0.00007413  0.00000059  0.0036956 0.0000
113 -29950.9341364727  -0.000007479292 0.00056954  0.00000423  0.0037061 0.0000
114 -29950.9343502926  -0.000213819916 0.00052322  0.00000388  0.0037215 0.0000
115 -29950.9346523427  -0.000302050092 0.00034350  0.00000256  0.0037498 0.0000
116 -29950.9350141076  -0.000361764858 0.00019170  0.00000145  0.0037755 0.0000
117 -29950.9352543234  -0.000240215806 0.00027724  0.00000207  0.0037941 0.0000
118 -29950.9350734387   0.000180884716 0.00054627  0.00000406  0.0038092 0.0000
119 -29950.9345521383   0.000521300382 0.00046322  0.00000345  0.0038323 0.0000
               *** Restarting incremental Fock matrix formation ***
                                   *** Resetting DIIS ***
120 -29950.9346036522  -0.000051513940 0.00130935  0.00000977  0.0038621 0.0000
121 -29950.9347126482  -0.000108995962 0.00104199  0.00000777  0.0039161 0.0000
122 -29950.9346095064   0.000103141832 0.00005292  0.00000077  0.0039749 0.0000
123 -29950.9348404640  -0.000230957616 0.00001093  0.00000011  0.0040053 0.0000
124 -29950.9349436847  -0.000103220696 0.00000372  0.00000004  0.0040086 0.0000
125 -29950.9349901781  -0.000046493442 0.00113544  0.00000850  0.0040070 0.0000
126 -29950.9346903893   0.000299788848 0.00070575  0.00000534  0.0040366 0.0000
127 -29950.9342749029   0.000415486400 0.00037453  0.00000285  0.0040946 0.0000
128 -29950.9342060646   0.000068838308 0.00041983  0.00000318  0.0041128 0.0000
129 -29950.9342761392  -0.000070074682 0.00048471  0.00000363  0.0041198 0.0000
130 -29950.9345650875  -0.000288948238 0.00073932  0.00000556  0.0041415 0.0000
131 -29950.9349508141  -0.000385726635 0.00031618  0.00000243  0.0041749 0.0000
132 -29950.9354099177  -0.000459103601 0.00007965  0.00000064  0.0042094 0.0000
133 -29950.9355266979  -0.000116780160 0.00064318  0.00000486  0.0042201 0.0000
134 -29950.9350213079   0.000505390017 0.00059426  0.00000448  0.0042386 0.0000
135 -29950.9344564375   0.000564870363 0.00038151  0.00000289  0.0042716 0.0000
136 -29950.9338467203   0.000609717157 0.00021017  0.00000161  0.0043018 0.0000
137 -29950.9335198433   0.000326877042 0.00031868  0.00000242  0.0043234 0.0000
138 -29950.9339609569  -0.000441113614 0.00061660  0.00000467  0.0043408 0.0000
139 -29950.9348918164  -0.000930859493 0.00051415  0.00000391  0.0043660 0.0000
               *** Restarting incremental Fock matrix formation ***
                                   *** Resetting DIIS ***
140 -29950.9348178851   0.000073931275 0.00146907  0.00001118  0.0043983 0.0000
141 -29950.9346052144   0.000212670704 0.00116978  0.00000890  0.0044616 0.0000
142 -29950.9349305701  -0.000325355686 0.00005899  0.00000087  0.0045269 0.0000
143 -29950.9347536641   0.000176906007 0.00001192  0.00000012  0.0045616 0.0000
144 -29950.9346908357   0.000062828367 0.00000440  0.00000004  0.0045655 0.0000
145 -29950.9348123299  -0.000121494133 0.00126988  0.00000971  0.0045639 0.0000
146 -29950.9348200549  -0.000007725041 0.00079010  0.00000610  0.0045977 0.0000
147 -29950.9348741397  -0.000054084834 0.00041469  0.00000323  0.0046626 0.0000
148 -29950.9351728216  -0.000298681836 0.00047072  0.00000364  0.0046821 0.0000
149 -29950.9351215508   0.000051270777 0.00054028  0.00000414  0.0046905 0.0000
150 -29950.9350195509   0.000101999911 0.00082813  0.00000636  0.0047154 0.0000
151 -29950.9348177103   0.000201840605 0.00035627  0.00000279  0.0047538 0.0000
152 -29950.9345944960   0.000223214309 0.00008351  0.00000070  0.0047934 0.0000
153 -29950.9346408452  -0.000046349229 0.00072029  0.00000557  0.0048062 0.0000
154 -29950.9348119532  -0.000171107979 0.00065873  0.00000509  0.0048271 0.0000
155 -29950.9350805358  -0.000268582655 0.00042703  0.00000332  0.0048635 0.0000
156 -29950.9354114717  -0.000330935854 0.00023954  0.00000188  0.0048964 0.0000
157 -29950.9356377183  -0.000226246622 0.00035651  0.00000277  0.0049199 0.0000
158 -29950.9354879539   0.000149764401 0.00068917  0.00000534  0.0049396 0.0000
159 -29950.9350184730   0.000469480954 0.00057409  0.00000447  0.0049698 0.0000
               *** Restarting incremental Fock matrix formation ***
                                   *** Resetting DIIS ***
160 -29950.9350963855  -0.000077912497 0.00164067  0.00001281  0.0050077 0.0000
161 -29950.9351966982  -0.000100312740 0.00130412  0.00001018  0.0050777 0.0000
162 -29950.9351281199   0.000068578254 0.00006393  0.00000096  0.0051529 0.0000
163 -29950.9353983714  -0.000270251428 0.00001161  0.00000013  0.0051910 0.0000
164 -29950.9355234309  -0.000125059483 0.00000529  0.00000005  0.0051955 0.0000
165 -29950.9356172511  -0.000093820228 0.00140895  0.00001107  0.0051936 0.0000
166 -29950.9352161916   0.000401059526 0.00088043  0.00000699  0.0052325 0.0000
167 -29950.9346651000   0.000551091591 0.00044293  0.00000356  0.0053059 0.0000
168 -29950.9346391777   0.000025922280 0.00052577  0.00000418  0.0053283 0.0000
169 -29950.9347218822  -0.000082704486 0.00059026  0.00000465  0.0053388 0.0000
170 -29950.9350918934  -0.000370011276 0.00092051  0.00000728  0.0053665 0.0000
171 -29950.9355693296  -0.000477436130 0.00040476  0.00000326  0.0054090 0.0000
172 -29950.9361287923  -0.000559462718 0.00008196  0.00000072  0.0054525 0.0000
173 -29950.9362870373  -0.000158245050 0.00080135  0.00000638  0.0054663 0.0000
174 -29950.9356515279   0.000635509437 0.00071698  0.00000570  0.0054915 0.0000
175 -29950.9349693524   0.000682175552 0.00048441  0.00000387  0.0055331 0.0000
176 -29950.9342453574   0.000723994974 0.00028531  0.00000230  0.0055710 0.0000
177 -29950.9338812691   0.000364088315 0.00039477  0.00000316  0.0055994 0.0000
178 -29950.9344341422  -0.000552873164 0.00075635  0.00000606  0.0056222 0.0000
179 -29950.9355423758  -0.001108233544 0.00063062  0.00000507  0.0056544 0.0000
               *** Restarting incremental Fock matrix formation ***
                                   *** Resetting DIIS ***
180 -29950.9354585982   0.000083777591 0.00181956  0.00001468  0.0056948 0.0000
181 -29950.9352035616   0.000255036597 0.00144864  0.00001170  0.0057766 0.0000
182 -29950.9356150497  -0.000411488068 0.00006821  0.00000107  0.0058593 0.0000
183 -29950.9354337591   0.000181290532 0.00001069  0.00000015  0.0059025 0.0000
184 -29950.9353793210   0.000054438126 0.00000680  0.00000007  0.0059082 0.0000
185 -29950.9355615831  -0.000182262142 0.00154703  0.00001259  0.0059064 0.0000
186 -29950.9354884522   0.000073130912 0.00097904  0.00000805  0.0059504 0.0000
187 -29950.9354455013   0.000042950964 0.00046510  0.00000388  0.0060317 0.0000
188 -29950.9358333607  -0.000387859400 0.00058263  0.00000480  0.0060558 0.0000
189 -29950.9357855537   0.000047806992 0.00063316  0.00000518  0.0060690 0.0000
190 -29950.9357422635   0.000043290212 0.00101816  0.00000836  0.0061000 0.0000
191 -29950.9355776069   0.000164656598 0.00046686  0.00000390  0.0061484 0.0000
192 -29950.9354031563   0.000174450608 0.00007706  0.00000075  0.0061979 0.0000
193 -29950.9355031569  -0.000100000681 0.00088305  0.00000731  0.0062150 0.0000
194 -29950.9355802867  -0.000077129807 0.00076765  0.00000635  0.0062435 0.0000
195 -29950.9357839190  -0.000203632309 0.00054540  0.00000454  0.0062885 0.0000
196 -29950.9360459878  -0.000262068712 0.00033639  0.00000282  0.0063293 0.0000
197 -29950.9362438155  -0.000197827696 0.00042986  0.00000359  0.0063605 0.0000
198 -29950.9361888721   0.000054943328 0.00082545  0.00000688  0.0063865 0.0000
199 -29950.9358488245   0.000340047678 0.00069374  0.00000581  0.0064245 0.0000
               *** Restarting incremental Fock matrix formation ***
                                   *** Resetting DIIS ***
200 -29950.9359297651  -0.000080940634 0.00200094  0.00001684  0.0064712 0.0000
201 -29950.9359973639  -0.000067598769 0.00159099  0.00001342  0.0065612 0.0000
202 -29950.9360082226  -0.000010858741 0.00007020  0.00000116  0.0066554 0.0000
203 -29950.9363044310  -0.000296208433 0.00000953  0.00000016  0.0067024 0.0000
204 -29950.9364537161  -0.000149285090 0.00000876  0.00000009  0.0067092 0.0000
205 -29950.9366303914  -0.000176675276 0.00167812  0.00001429  0.0067071 0.0000
206 -29950.9361047939   0.000525597501 0.00107860  0.00000929  0.0067573 0.0000
207 -29950.9353936558   0.000711138109 0.00046612  0.00000410  0.0068480 0.0000
208 -29950.9354627402  -0.000069084421 0.00064020  0.00000553  0.0068758 0.0000
209 -29950.9355431986  -0.000080458372 0.00066289  0.00000569  0.0068926 0.0000
210 -29950.9360021215  -0.000458922928 0.00111292  0.00000959  0.0069263 0.0000
211 -29950.9365573712  -0.000555249710 0.00053653  0.00000470  0.0069791 0.0000
212 -29950.9371786971  -0.000621325875 0.00006316  0.00000071  0.0070332 0.0000
213 -29950.9373925210  -0.000213823947 0.00096203  0.00000837  0.0070519 0.0000
214 -29950.9366555596   0.000736961443 0.00080366  0.00000699  0.0070863 0.0000
215 -29950.9359247334   0.000730826152 0.00061841  0.00000541  0.0071364 0.0000
216 -29950.9351560092   0.000768724258 0.00040503  0.00000357  0.0071828 0.0000
217 -29950.9347979437   0.000358065470 0.00046261  0.00000407  0.0072204 0.0000
218 -29950.9354248334  -0.000626889676 0.00088103  0.00000775  0.0072505 0.0000
219 -29950.9365937287  -0.001168895313 0.00074738  0.00000661  0.0072906 0.0000
               *** Restarting incremental Fock matrix formation ***
                                   *** Resetting DIIS ***
220 -29950.9365423903   0.000051338375 0.00217318  0.00001932  0.0073395 0.0000
221 -29950.9362824408   0.000259949498 0.00173147  0.00001546  0.0074435 0.0000
222 -29950.9367488675  -0.000466426678 0.00008278  0.00000130  0.0075458 0.0000
223 -29950.9366417582   0.000107109267 0.00055690  0.00000503  0.0075984 0.0000
224 -29950.9368807605  -0.000239002275 0.00016665  0.00000150  0.0075833 0.0000
225 -29950.9372682325  -0.000387472021 0.00205005  0.00001855  0.0075668 0.0000
226 -29950.9367307090   0.000537523498 0.00152884  0.00001387  0.0076417 0.0000
227 -29950.9358789370   0.000851772013 0.00075125  0.00000699  0.0077448 0.0000
228 -29950.9362210273  -0.000342090258 0.00042560  0.00000395  0.0077747 0.0000
229 -29950.9364140286  -0.000193001353 0.00096785  0.00000880  0.0077809 0.0000
230 -29950.9367332395  -0.000319210863 0.00122057  0.00001118  0.0078153 0.0000
231 -29950.9371452900  -0.000412050522 0.00061016  0.00000568  0.0078814 0.0000
232 -29950.9376397285  -0.000494438504 0.00018577  0.00000181  0.0079432 0.0000
233 -29950.9378900561  -0.000250327579 0.00094745  0.00000878  0.0079616 0.0000
234 -29950.9372697060   0.000620350129 0.00103279  0.00000956  0.0079942 0.0000
235 -29950.9366730447   0.000596661252 0.00072295  0.00000675  0.0080511 0.0000
236 -29950.9360788453   0.000594199457 0.00031845  0.00000302  0.0081081 0.0000
237 -29950.9358362965   0.000242548769 0.00045605  0.00000428  0.0081469 0.0000
238 -29950.9363955873  -0.000559290853 0.00098409  0.00000925  0.0081764 0.0000
239 -29950.9373115105  -0.000915923199 0.00089405  0.00000845  0.0082213 0.0000
               *** Restarting incremental Fock matrix formation ***
                                   *** Resetting DIIS ***
240 -29950.9373155335  -0.000004022932 0.00231697  0.00002209  0.0082785 0.0000
241 -29950.9371249221   0.000190611416 0.00183629  0.00001763  0.0083952 0.0000
242 -29950.9375165494  -0.000391627327 0.00010151  0.00000151  0.0085082 0.0000
243 -29950.9375525095  -0.000035960158 0.00056806  0.00000553  0.0085642 0.0000
244 -29950.9378930777  -0.000340568171 0.00016816  0.00000163  0.0085568 0.0000
245 -29950.9381842833  -0.000291205542 0.00216787  0.00002113  0.0085362 0.0000
246 -29950.9374621449   0.000722138386 0.00159330  0.00001560  0.0086179 0.0000
247 -29950.9365415752   0.000920569706 0.00073394  0.00000741  0.0087286 0.0000
248 -29950.9368802610  -0.000338685815 0.00047273  0.00000473  0.0087778 0.0000
249 -29950.9371171025  -0.000236841504 0.00101740  0.00001001  0.0087758 0.0000
250 -29950.9376195054  -0.000502402898 0.00126404  0.00001254  0.0088090 0.0000
251 -29950.9381774822  -0.000557976833 0.00065969  0.00000665  0.0088801 0.0000
252 -29950.9387112367  -0.000533754490 0.00013294  0.00000149  0.0089570 0.0000
253 -29950.9389768314  -0.000265594648 0.00100674  0.00001012  0.0089915 0.0000
254 -29950.9381909868   0.000785844528 0.00104118  0.00001048  0.0090163 0.0000
255 -29950.9374437445   0.000747242284 0.00076799  0.00000780  0.0090765 0.0000
256 -29950.9367428611   0.000700883422 0.00039343  0.00000405  0.0091426 0.0000
257 -29950.9365297630   0.000213098127 0.00049312  0.00000505  0.0091930 0.0000
258 -29950.9372596069  -0.000729843930 0.00101029  0.00001037  0.0092275 0.0000
259 -29950.9383654025  -0.001105795593 0.00091912  0.00000949  0.0092728 0.0000
               *** Restarting incremental Fock matrix formation ***
                                   *** Resetting DIIS ***
260 -29950.9383135147   0.000051887790 0.00242936  0.00002526  0.0093384 0.0000
261 -29950.9380751602   0.000238354492 0.00198190  0.00002029  0.0094481 0.0000
262 -29950.9385704912  -0.000495330984 0.00013964  0.00000197  0.0095791 0.0000
263 -29950.9385244189   0.000046072313 0.00061284  0.00000632  0.0096693 0.0000
264 -29950.9389393484  -0.000414929444 0.00017911  0.00000183  0.0096664 0.0000
265 -29950.9393642202  -0.000424871865 0.00234241  0.00002405  0.0096441 0.0000
266 -29950.9385296810   0.000834539176 0.00175480  0.00001769  0.0097068 0.0000
267 -29950.9374625676   0.001067113488 0.00070640  0.00000741  0.0098340 0.0000
268 -29950.9379117580  -0.000449190487 0.00054346  0.00000558  0.0099082 0.0000
269 -29950.9381985819  -0.000286823903 0.00111274  0.00001116  0.0099084 0.0000
270 -29950.9387410794  -0.000542497462 0.00140204  0.00001401  0.0099416 0.0000
271 -29950.9393149385  -0.000573859088 0.00081378  0.00000814  0.0100168 0.0000
272 -29950.9398198664  -0.000504927881 0.00006521  0.00000102  0.0101027 0.0000
273 -29950.9400898335  -0.000269967139 0.00116458  0.00001158  0.0101465 0.0000
274 -29950.9392952362   0.000794597348 0.00114131  0.00001123  0.0101743 0.0000
275 -29950.9386281621   0.000667074040 0.00093838  0.00000921  0.0102377 0.0000
276 -29950.9380074029   0.000620759234 0.00056734  0.00000558  0.0103078 0.0000
277 -29950.9378688615   0.000138541374 0.00060169  0.00000589  0.0103660 0.0000
278 -29950.9386118846  -0.000743023094 0.00117578  0.00001147  0.0104073 0.0000
279 -29950.9396084834  -0.000996598828 0.00110413  0.00001071  0.0104550 0.0000
               *** Restarting incremental Fock matrix formation ***
                                   *** Resetting DIIS ***
280 -29950.9396029944   0.000005489012 0.00298860  0.00002884  0.0105242 0.0000
281 -29950.9394137126   0.000189281851 0.00246021  0.00002338  0.0106374 0.0000
282 -29950.9398969911  -0.000483278534 0.00025822  0.00000298  0.0107777 0.0000
283 -29950.9398568654   0.000040125746 0.00074874  0.00000719  0.0108830 0.0000
284 -29950.9403918869  -0.000535021540 0.00021420  0.00000202  0.0108881 0.0000
285 -29950.9408452473  -0.000453360397 0.00285407  0.00002723  0.0108646 0.0000
286 -29950.9398531875   0.000992059769 0.00214462  0.00002010  0.0109228 0.0000
287 -29950.9387238352   0.001129352371 0.00067597  0.00000673  0.0110579 0.0000
288 -29950.9392247666  -0.000500931408 0.00069362  0.00000660  0.0111479 0.0000
289 -29950.9393494490  -0.000124682407 0.00082824  0.00000774  0.0111521 0.0000
290 -29950.9401825702  -0.000833121216 0.00209839  0.00001956  0.0111844 0.0000
291 -29950.9407264292  -0.000543858980 0.00127048  0.00001178  0.0112498 0.0000
292 -29950.9411613230  -0.000434893875 0.00022200  0.00000239  0.0113530 0.0000
293 -29950.9416950953  -0.000533772225 0.00136555  0.00001268  0.0114118 0.0000
294 -29950.9408881546   0.000806940683 0.00126071  0.00001156  0.0114335 0.0000
295 -29950.9402840643   0.000604090288 0.00141485  0.00001295  0.0114965 0.0000
296 -29950.9396421626   0.000641901661 0.00086303  0.00000789  0.0115676 0.0000
297 -29950.9393982020   0.000243960654 0.00055561  0.00000508  0.0116417 0.0000
298 -29950.9401215997  -0.000723397665 0.00136380  0.00001243  0.0116904 0.0000
299 -29950.9410684071  -0.000946807482 0.00144639  0.00001310  0.0117324 0.0000
               *** Restarting incremental Fock matrix formation ***
                                   *** Resetting DIIS ***
300 -29950.9412608781  -0.000192470947 0.00363324  0.00003277  0.0118028 0.0000
301 -29950.9411780776   0.000082800503 0.00302149  0.00002687  0.0119157 0.0000
302 -29950.9415780424  -0.000399964829 0.00050740  0.00000480  0.0120620 0.0000
303 -29950.9415658530   0.000012189368 0.00087826  0.00000793  0.0121831 0.0000
304 -29950.9422324786  -0.000666625536 0.00024302  0.00000214  0.0122016 0.0000
305 -29950.9426913329  -0.000458854294 0.00341377  0.00003051  0.0121786 0.0000
306 -29950.9415704594   0.001120873432 0.00260237  0.00002287  0.0122261 0.0000
307 -29950.9404831013   0.001087358145 0.00048893  0.00000493  0.0123646 0.0000
308 -29950.9409961155  -0.000513014162 0.00088362  0.00000785  0.0124729 0.0000
309 -29950.9411000596  -0.000103944119 0.00082283  0.00000721  0.0124839 0.0000
310 -29950.9420965134  -0.000996453778 0.00250970  0.00002198  0.0125174 0.0000
311 -29950.9426109071  -0.000514393705 0.00175703  0.00001528  0.0125743 0.0000
312 -29950.9428611564  -0.000250249388 0.00007448  0.00000139  0.0126814 0.0000
313 -29950.9434536360  -0.000592479595 0.00104692  0.00000912  0.0127585 0.0000
314 -29950.9429770354   0.000476600660 0.00182634  0.00001582  0.0127768 0.0000
315 -29950.9422184032   0.000758632199 0.00193861  0.00001668  0.0128303 0.0000
316 -29950.9417386100   0.000479793132 0.00109766  0.00000944  0.0129078 0.0000
317 -29950.9415891208   0.000149489228 0.00064233  0.00000553  0.0129928 0.0000
318 -29950.9422131776  -0.000624056735 0.00147274  0.00001264  0.0130476 0.0000
319 -29950.9430867304  -0.000873552879 0.00192419  0.00001643  0.0130858 0.0000
               *** Restarting incremental Fock matrix formation ***
                                   *** Resetting DIIS ***
320 -29950.9433982030  -0.000311472551 0.00434441  0.00003697  0.0131500 0.0000
321 -29950.9434110368  -0.000012833832 0.00367628  0.00003088  0.0132549 0.0000
322 -29950.9437676423  -0.000356605517 0.00094568  0.00000805  0.0133997 0.0000
323 -29950.9436430992   0.000124543141 0.00096477  0.00000830  0.0135358 0.0000
324 -29950.9444147516  -0.000771652394 0.00025252  0.00000210  0.0135760 0.0000
325 -29950.9450070508  -0.000592299184 0.00395928  0.00003348  0.0135563 0.0000
326 -29950.9438992723   0.001107778480 0.00314638  0.00002619  0.0135831 0.0000
327 -29950.9429571733   0.000942098981 0.00012946  0.00000233  0.0137159 0.0000
328 -29950.9430335603  -0.000076386976 0.00012352  0.00000109  0.0138426 0.0000
329 -29950.9437084744  -0.000674914136 0.00186440  0.00001564  0.0138608 0.0000
330 -29950.9444252001  -0.000716725721 0.00308736  0.00002559  0.0138722 0.0000
331 -29950.9449375727  -0.000512372568 0.00205038  0.00001691  0.0139332 0.0000
332 -29950.9450934508  -0.000155878075 0.00022801  0.00000232  0.0140433 0.0000
333 -29950.9455735791  -0.000480128347 0.00095736  0.00000793  0.0141299 0.0000
334 -29950.9454051080   0.000168471139 0.00235771  0.00001943  0.0141514 0.0000
335 -29950.9448733703   0.000531737722 0.00257912  0.00002111  0.0141875 0.0000
336 -29950.9445330377   0.000340332525 0.00145105  0.00001187  0.0142631 0.0000
337 -29950.9445025668   0.000030470925 0.00078440  0.00000643  0.0143569 0.0000
338 -29950.9450641036  -0.000561536770 0.00163323  0.00001336  0.0144189 0.0000
339 -29950.9457255063  -0.000661402726 0.00240111  0.00001956  0.0144521 0.0000
               *** Restarting incremental Fock matrix formation ***
                                   *** Resetting DIIS ***
340 -29950.9461458019  -0.000420295561 0.00506801  0.00004119  0.0145037 0.0000
341 -29950.9463156530  -0.000169851130 0.00442140  0.00003553  0.0145847 0.0000
342 -29950.9466019685  -0.000286315520 0.00171830  0.00001380  0.0147125 0.0000
343 -29950.9463331509   0.000268817599 0.00085623  0.00000723  0.0148561 0.0000
344 -29950.9471425877  -0.000809436813 0.00020095  0.00000159  0.0149301 0.0000
345 -29950.9478926784  -0.000750090683 0.00430669  0.00003488  0.0149205 0.0000
346 -29950.9469928102   0.000899868228 0.00376892  0.00003012  0.0149129 0.0000
347 -29950.9463668696   0.000625940625 0.00109516  0.00000887  0.0150223 0.0000
348 -29950.9462829872   0.000083882365 0.00006517  0.00000110  0.0151557 0.0000
349 -29950.9469810765  -0.000698089261 0.00206296  0.00001661  0.0152128 0.0000
350 -29950.9475391427  -0.000558066276 0.00320697  0.00002556  0.0152129 0.0000
351 -29950.9480225140  -0.000483371216 0.00288493  0.00002291  0.0152508 0.0000
352 -29950.9480252880  -0.000002774090 0.00133962  0.00001066  0.0153353 0.0000
353 -29950.9481998636  -0.000174575511 0.00099234  0.00000789  0.0154314 0.0000
354 -29950.9484440955  -0.000244231906 0.00226953  0.00001804  0.0154813 0.0000
355 -29950.9483985637   0.000045531746 0.00301943  0.00002389  0.0155018 0.0000
356 -29950.9484066331  -0.000008069412 0.00256332  0.00002022  0.0155462 0.0000
357 -29950.9484944126  -0.000087779517 0.00165660  0.00001308  0.0156204 0.0000
358 -29950.9487520710  -0.000257658361 0.00161588  0.00001275  0.0156967 0.0000
359 -29950.9491782959  -0.000426224866 0.00239300  0.00001888  0.0157441 0.0000
               *** Restarting incremental Fock matrix formation ***
                                   *** Resetting DIIS ***
360 -29950.9497691225  -0.000590826592 0.00570801  0.00004506  0.0157755 0.0000
361 -29950.9501197708  -0.000350648334 0.00524911  0.00004103  0.0157996 0.0000
362 -29950.9504239851  -0.000304214260 0.00310533  0.00002426  0.0158775 0.0000
363 -29950.9500432386   0.000380746416 0.00014317  0.00000234  0.0160009 0.0000
364 -29950.9504058432  -0.000362604584 0.00101876  0.00000807  0.0161147 0.0000
365 -29950.9514581978  -0.001052354532 0.00411428  0.00003263  0.0161489 0.0000
366 -29950.9510404602   0.000417737512 0.00476790  0.00003729  0.0160880 0.0000
367 -29950.9511414716  -0.000101011305 0.00337818  0.00002635  0.0161228 0.0000
368 -29950.9509611636   0.000180307929 0.00132762  0.00001043  0.0162161 0.0000
369 -29950.9510572189  -0.000096055282 0.00094659  0.00000743  0.0163184 0.0000
370 -29950.9517572865  -0.000700067569 0.00276224  0.00002168  0.0163620 0.0000
371 -29950.9522041041  -0.000446817587 0.00400832  0.00003135  0.0163505 0.0000
372 -29950.9524125766  -0.000208472549 0.00378209  0.00002951  0.0163586 0.0000
373 -29950.9525799182  -0.000167341612 0.00268827  0.00002098  0.0164045 0.0000
374 -29950.9526613087  -0.000081390524 0.00197597  0.00001544  0.0164743 0.0000
375 -29950.9529618520  -0.000300543299 0.00246617  0.00001930  0.0165293 0.0000
376 -29950.9533540739  -0.000392221831 0.00341741  0.00002675  0.0165474 0.0000
377 -29950.9536980654  -0.000343991513 0.00387920  0.00003034  0.0165507 0.0000
378 -29950.9539940978  -0.000296032456 0.00370790  0.00002900  0.0165637 0.0000
379 -29950.9542487230  -0.000254625123 0.00326992  0.00002560  0.0165930 0.0000
               *** Restarting incremental Fock matrix formation ***
                                   *** Resetting DIIS ***
380 -29950.9550010725  -0.000752349497 0.00598888  0.00004712  0.0166297 0.0000
381 -29950.9555295660  -0.000528493518 0.00589630  0.00004623  0.0165858 0.0000
382 -29950.9560004652  -0.000470899235 0.00537223  0.00004225  0.0165728 0.0000
383 -29950.9563104842  -0.000310019004 0.00443907  0.00003504  0.0165876 0.0000
384 -29950.9564831408  -0.000172656579 0.00319528  0.00002532  0.0166211 0.0000
385 -29950.9567993260  -0.000316185204 0.00354116  0.00002816  0.0166692 0.0000
386 -29950.9573967129  -0.000597386872 0.00477883  0.00003809  0.0166705 0.0000
387 -29950.9581029445  -0.000706231589 0.00626970  0.00005011  0.0166227 0.0000
388 -29950.9589440200  -0.000841075562 0.00805677  0.00006469  0.0165322 0.0000
389 -29950.9601186000  -0.001174579931 0.01040767  0.00008422  0.0163851 0.0000
390 -29950.9612628544  -0.001144254416 0.01352967  0.00011086  0.0161483 0.0000
391 -29950.9629876233  -0.001724768888 0.01694864  0.00014173  0.0159090 0.0000
392 -29950.9636929606  -0.000705337337 0.01914760  0.00016530  0.0156364 0.0000
393 -29950.9675427126  -0.003849751964 0.02268210  0.00020597  0.0151292 0.0000
394 -29950.9637323143   0.003810398292 0.01745418  0.00017100  0.0146863 0.0000
395 -29951.0208222258  -0.057089911570 0.05616518  0.00051885  0.0136806 0.0000
396 -29951.1917114052  -0.170889179357 0.02480610  0.00023547  0.0127979 0.0000
397 -29950.9749434504   0.216767954764 0.01973235  0.00017028  0.0119091 0.0000
398 -29951.0314088671  -0.056465416703 0.03763008  0.00029418  0.0101234 0.0000
399 -29951.0968424398  -0.065433572672 0.03025449  0.00021407  0.0087290 0.0000
               *** Restarting incremental Fock matrix formation ***
                                   *** Resetting DIIS ***
400 -29950.9764527586   0.120389681204 0.00195784  0.00003593  0.0062900 0.0000
401 -29950.9804199393  -0.003967180652 0.00171927  0.00001814  0.0048497 0.0000
402 -29950.9686773925   0.011742546714 0.00207230  0.00001682  0.0048032 0.0000
403 -29950.9751186685  -0.006441275906 0.00258180  0.00002100  0.0047357 0.0000
404 -29950.9758744622  -0.000755793750 0.00425521  0.00003215  0.0046418 0.0000
405 -29950.9733132054   0.002561256835 0.00718118  0.00005356  0.0043093 0.0000
406 -29950.9895279076  -0.016214702198 0.00880677  0.00006354  0.0039151 0.0000
407 -29950.9656993487   0.023828558904 0.00689053  0.00004882  0.0036082 0.0000
408 -29950.9803739543  -0.014674605674 0.00960102  0.00006678  0.0031453 0.0000
409 -29950.9747943917   0.005579562658 0.00544786  0.00003710  0.0026912 0.0000
410 -29950.9765655595  -0.001771167852 0.00984336  0.00006684  0.0021042 0.0000
411 -29950.9738943448   0.002671214752 0.00363187  0.00002458  0.0016460 0.0000
412 -29950.9776050681  -0.003710723275 0.00555983  0.00003751  0.0010620 0.0000
413 -29950.9777523436  -0.000147275510 0.00289023  0.00001957  0.0007526 0.0000
414 -29950.9794834333  -0.001731089767 0.00137815  0.00001025  0.0005944 0.0000
415 -29950.9790738723   0.000409561075 0.00061858  0.00000484  0.0003785 0.0000
416 -29950.9750462017   0.004027670580 0.00025189  0.00000208  0.0002727 0.0000
417 -29950.9786211600  -0.003574958348 0.00019963  0.00000163  0.0001857 0.0000
418 -29950.9772116462   0.001409513861 0.00024570  0.00000206  0.0001274 0.0000
419 -29950.9774675425  -0.000255896357 0.00032349  0.00000243  0.0000816 0.0000
               *** Restarting incremental Fock matrix formation ***
                                   *** Resetting DIIS ***
420 -29950.9777010431  -0.000233500603 0.00001471  0.00000022  0.0000531 0.0000
421 -29950.9777968403  -0.000095797186 0.00001636  0.00000020  0.0000436 0.0000
422 -29950.9778410573  -0.000044216944 0.00001512  0.00000018  0.0000415 0.0000
423 -29950.9775474923   0.000293564925 0.00002673  0.00000027  0.0000380 0.0000
424 -29950.9777232410  -0.000175748723 0.00004983  0.00000051  0.0000345 0.0000
425 -29950.9776429419   0.000080299174 0.00004860  0.00000047  0.0000322 0.0000
426 -29950.9777264760  -0.000083534149 0.00003091  0.00000027  0.0000297 0.0000
427 -29950.9776862255   0.000040250521 0.00003280  0.00000027  0.0000280 0.0000
428 -29950.9777205611  -0.000034335637 0.00003995  0.00000031  0.0000260 0.0000
429 -29950.9776772596   0.000043301494 0.00004990  0.00000038  0.0000240 0.0000
430 -29950.9776760098   0.000001249835 0.00005200  0.00000040  0.0000216 0.0000
431 -29950.9777421322  -0.000066122368 0.00004913  0.00000038  0.0000187 0.0000
432 -29950.9776820177   0.000060114442 0.00005258  0.00000041  0.0000154 0.0000
433 -29950.9777278157  -0.000045797940 0.00004103  0.00000033  0.0000130 0.0000
434 -29950.9777104120   0.000017403709 0.00005129  0.00000042  0.0000122 0.0000
435 -29950.9777532583  -0.000042846299 0.00001776  0.00000016  0.0000119 0.0000
436 -29950.9777250077   0.000028250608 0.00002920  0.00000026  0.0000105 0.0000
437 -29950.9777296480  -0.000004640322 0.00001380  0.00000011  0.0000101 0.0000
438 -29950.9777345142  -0.000004866186 0.00001134  0.00000008  0.0000092 0.0000
439 -29950.9777412915  -0.000006777296 0.00000609  0.00000004  0.0000087 0.0000
               *** Restarting incremental Fock matrix formation ***
                                   *** Resetting DIIS ***
440 -29950.9777011674   0.000040124021 0.00000298  0.00000002  0.0000087 0.0000
441 -29950.9777023690  -0.000001201544 0.00000353  0.00000003  0.0000089 0.0000
442 -29950.9776983810   0.000003988007 0.00000562  0.00000004  0.0000088 0.0000
443 -29950.9777128139  -0.000014432906 0.00001150  0.00000008  0.0000087 0.0000
444 -29950.9776844479   0.000028365965 0.00001600  0.00000011  0.0000081 0.0000
445 -29950.9776936522  -0.000009204265 0.00000992  0.00000007  0.0000081 0.0000
446 -29950.9776965405  -0.000002888301 0.00002611  0.00000018  0.0000077 0.0000
447 -29950.9776561738   0.000040366711 0.00000713  0.00000005  0.0000080 0.0000
448 -29950.9776982619  -0.000042088170 0.00002916  0.00000020  0.0000070 0.0000
449 -29950.9776734469   0.000024815083 0.00001558  0.00000011  0.0000074 0.0000
450 -29950.9776566318   0.000016815029 0.00003981  0.00000027  0.0000065 0.0000
451 -29950.9776605482  -0.000003916375 0.00002033  0.00000014  0.0000068 0.0000
452 -29950.9777066158  -0.000046067580 0.00000568  0.00000004  0.0000055 0.0000
453 -29950.9777054792   0.000001136621 0.00002864  0.00000019  0.0000046 0.0000
454 -29950.9776628027   0.000042676438 0.00002391  0.00000016  0.0000051 0.0000
455 -29950.9776689390  -0.000006136317 0.00002217  0.00000014  0.0000045 0.0000
456 -29950.9776513954   0.000017543607 0.00000309  0.00000003  0.0000040 0.0000
457 -29950.9776906502  -0.000039254774 0.00000702  0.00000004  0.0000030 0.0000
458 -29950.9777086583  -0.000018008093 0.00000917  0.00000006  0.0000029 0.0000
459 -29950.9776907482   0.000017910079 0.00002187  0.00000014  0.0000029 0.0000
               *** Restarting incremental Fock matrix formation ***
                                   *** Resetting DIIS ***
460 -29950.9777011768  -0.000010428608 0.00000386  0.00000003  0.0000031 0.0000
461 -29950.9777019324  -0.000000755590 0.00000096  0.00000001  0.0000025 0.0000
462 -29950.9777027979  -0.000000865468 0.00000096  0.00000001  0.0000024 0.0000
463 -29950.9777000761   0.000002721801 0.00000124  0.00000001  0.0000024 0.0000
464 -29950.9777011096  -0.000001033481 0.00000141  0.00000001  0.0000023 0.0000
465 -29950.9777023995  -0.000001289911 0.00000256  0.00000002  0.0000022 0.0000
466 -29950.9777052775  -0.000002878009 0.00000351  0.00000004  0.0000022 0.0000
467 -29950.9776972842   0.000007993316 0.00000442  0.00000004  0.0000020 0.0000
468 -29950.9776992933  -0.000002009150 0.00000306  0.00000003  0.0000020 0.0000
469 -29950.9777004373  -0.000001143984 0.00000519  0.00000005  0.0000019 0.0000
470 -29950.9776932198   0.000007217543 0.00000318  0.00000003  0.0000019 0.0000
471 -29950.9776972025  -0.000003982739 0.00000978  0.00000009  0.0000018 0.0000
472 -29950.9776962932   0.000000909342 0.00000153  0.00000001  0.0000019 0.0000
473 -29950.9777017499  -0.000005456754 0.00000588  0.00000006  0.0000015 0.0000
474 -29950.9777036742  -0.000001924327 0.00000192  0.00000002  0.0000015 0.0000
475 -29950.9777005809   0.000003093312 0.00000153  0.00000001  0.0000013 0.0000
476 -29950.9777009163  -0.000000335349 0.00000129  0.00000001  0.0000013 0.0000
477 -29950.9777014432  -0.000000526874 0.00000276  0.00000002  0.0000013 0.0000
478 -29950.9777019017  -0.000000458571 0.00000132  0.00000001  0.0000013 0.0000
479 -29950.9777004618   0.000001439927 0.00000204  0.00000001  0.0000013 0.0000
               *** Restarting incremental Fock matrix formation ***
                                   *** Resetting DIIS ***
480 -29950.9777011775  -0.000000715692 0.00001078  0.00000007  0.0000012 0.0000
481 -29950.9777009510   0.000000226530 0.00000090  0.00000001  0.0000012 0.0000
482 -29950.9776996770   0.000001274009 0.00000072  0.00000000  0.0000012 0.0000
483 -29950.9777003608  -0.000000683820 0.00000096  0.00000001  0.0000012 0.0000
484 -29950.9777010354  -0.000000674627 0.00000590  0.00000004  0.0000012 0.0000
485 -29950.9777006668   0.000000368633 0.00000203  0.00000002  0.0000012 0.0000
486 -29950.9776999863   0.000000680513 0.00000087  0.00000001  0.0000011 0.0000
487 -29950.9777011816  -0.000001195345 0.00000192  0.00000002  0.0000011 0.0000
488 -29950.9777019601  -0.000000778480 0.00000277  0.00000003  0.0000011 0.0000
489 -29950.9777012416   0.000000718494 0.00000314  0.00000002  0.0000011 0.0000
490 -29950.9776996035   0.000001638051 0.00000684  0.00000005  0.0000011 0.0000
491 -29950.9777011850  -0.000001581422 0.00000902  0.00000006  0.0000010 0.0000
                            ***DIIS convergence achieved***

               *****************************************************
               *                     SUCCESS                       *
               *           SCF CONVERGED AFTER 492 CYCLES          *
               *****************************************************


----------------
TOTAL SCF ENERGY
----------------

Total Energy       :       -29950.97770264 Eh         -815007.53747 eV

Components:
Nuclear Repulsion  :         1299.98569589 Eh           35374.40919 eV
Electronic Energy  :       -31250.96339853 Eh         -850381.94666 eV
One Electron Energy:       -43217.48734231 Eh        -1176007.61766 eV
Two Electron Energy:        11966.52394378 Eh          325625.67100 eV

Virial components:
Potential Energy   :       -87475.28746018 Eh        -2380323.58510 eV
Kinetic Energy     :        57524.30975754 Eh         1565316.04763 eV
Virial Ratio       :            1.52066644


---------------
SCF CONVERGENCE
---------------

  Last Energy change         ...   -1.4586e-06  Tolerance :   1.0000e-08
  Last MAX-Density change    ...    1.1518e-05  Tolerance :   1.0000e-07
  Last RMS-Density change    ...    7.6068e-08  Tolerance :   5.0000e-09
  Last DIIS Error            ...    9.5708e-07  Tolerance :   5.0000e-07

================================================================================
                                        WARNING
Check your MOs and check whether a frozen core calculation is appropriate
MO 35 should be a Pu s core orbital but seems to be delocalized with a O  s orbital (86.2% vs.  7.0%)
================================================================================
             **** THE GBW FILE WAS UPDATED (/home/nikolayandreadi_2125/_scratch/MP2/PuO2_CO3.gbw) ****
             **** DENSITY FILE WAS UPDATED (/home/nikolayandreadi_2125/_scratch/MP2/PuO2_CO3.scfp.tmp) ****
             **** ENERGY FILE WAS UPDATED (/home/nikolayandreadi_2125/_scratch/MP2/PuO2_CO3.en.tmp) ****
----------------
ORBITAL ENERGIES
----------------

  NO   OCC          E(Eh)            E(eV) 
   0   2.0000   -4488.816790   -122146.9147 
   1   2.0000    -854.510204    -23252.4048 
   2   2.0000    -712.187819    -19379.6158 
   3   2.0000    -712.187525    -19379.6078 
   4   2.0000    -712.184309    -19379.5203 
   5   2.0000    -220.888656     -6010.6859 
   6   2.0000    -180.842911     -4920.9858 
   7   2.0000    -180.842811     -4920.9831 
   8   2.0000    -180.821266     -4920.3968 
   9   2.0000    -144.110226     -3921.4386 
  10   2.0000    -144.105361     -3921.3062 
  11   2.0000    -144.101303     -3921.1958 
  12   2.0000    -144.101046     -3921.1888 
  13   2.0000    -144.095507     -3921.0381 
  14   2.0000     -59.032948     -1606.3682 
  15   2.0000     -45.671045     -1242.7723 
  16   2.0000     -45.670767     -1242.7647 
  17   2.0000     -45.630371     -1241.6655 
  18   2.0000     -31.596519      -859.7850 
  19   2.0000     -31.588084      -859.5555 
  20   2.0000     -31.564001      -858.9001 
  21   2.0000     -31.563813      -858.8950 
  22   2.0000     -31.559678      -858.7825 
  23   2.0000     -20.670763      -562.4801 
  24   2.0000     -20.670616      -562.4761 
  25   2.0000     -20.571819      -559.7877 
  26   2.0000     -20.571298      -559.7735 
  27   2.0000     -20.518724      -558.3429 
  28   2.0000     -17.151473      -466.7153 
  29   2.0000     -17.136006      -466.2944 
  30   2.0000     -17.134738      -466.2599 
  31   2.0000     -17.122234      -465.9197 
  32   2.0000     -17.113011      -465.6687 
  33   2.0000     -17.101529      -465.3563 
  34   2.0000     -17.101208      -465.3475 
  35   2.0000     -14.056465      -382.4959 
  36   2.0000     -11.403890      -310.3156 
  37   2.0000      -9.741275      -265.0736 
  38   2.0000      -9.740206      -265.0445 
  39   2.0000      -9.712905      -264.3016 
  40   2.0000      -4.860645      -132.2649 
  41   2.0000      -4.859873      -132.2439 
  42   2.0000      -4.857447      -132.1778 
  43   2.0000      -4.855825      -132.1337 
  44   2.0000      -4.823789      -131.2620 
  45   2.0000      -2.501631       -68.0728 
  46   2.0000      -1.697963       -46.2039 
  47   2.0000      -1.499805       -40.8118 
  48   2.0000      -1.379752       -37.5450 
  49   2.0000      -1.361213       -37.0405 
  50   2.0000      -1.356584       -36.9145 
  51   2.0000      -1.242406       -33.8076 
  52   2.0000      -1.226069       -33.3630 
  53   2.0000      -0.996395       -27.1133 
  54   2.0000      -0.769660       -20.9435 
  55   2.0000      -0.699714       -19.0402 
  56   2.0000      -0.691155       -18.8073 
  57   2.0000      -0.665633       -18.1128 
  58   2.0000      -0.658426       -17.9167 
  59   2.0000      -0.653131       -17.7726 
  60   2.0000      -0.624734       -16.9999 
  61   2.0000      -0.618206       -16.8222 
  62   2.0000      -0.615408       -16.7461 
  63   2.0000      -0.599896       -16.3240 
  64   2.0000      -0.573594       -15.6083 
  65   2.0000      -0.498796       -13.5729 
  66   2.0000      -0.491298       -13.3689 
  67   2.0000      -0.486409       -13.2359 
  68   2.0000      -0.432861       -11.7787 
  69   2.0000      -0.430289       -11.7088 
  70   0.0000      -0.022767        -0.6195 
  71   0.0000       0.020049         0.5456 
  72   0.0000       0.031128         0.8470 
  73   0.0000       0.041237         1.1221 
  74   0.0000       0.070098         1.9075 
  75   0.0000       0.077847         2.1183 
  76   0.0000       0.087977         2.3940 
  77   0.0000       0.099846         2.7169 
  78   0.0000       0.130001         3.5375 
  79   0.0000       0.131560         3.5799 
  80   0.0000       0.138109         3.7581 
  81   0.0000       0.145013         3.9460 
  82   0.0000       0.168203         4.5770 
  83   0.0000       0.169007         4.5989 
  84   0.0000       0.171981         4.6798 
  85   0.0000       0.184040         5.0080 
  86   0.0000       0.221165         6.0182 
  87   0.0000       0.240509         6.5446 
  88   0.0000       0.243367         6.6224 
  89   0.0000       0.255118         6.9421 
  90   0.0000       0.286426         7.7941 
  91   0.0000       0.318846         8.6762 
  92   0.0000       0.346377         9.4254 
  93   0.0000       0.376961        10.2576 
  94   0.0000       0.400791        10.9061 
  95   0.0000       0.418844        11.3973 
  96   0.0000       0.446366        12.1462 
  97   0.0000       0.454673        12.3723 
  98   0.0000       0.464699        12.6451 
  99   0.0000       0.474496        12.9117 
 100   0.0000       0.485417        13.2089 
 101   0.0000       0.491777        13.3819 
 102   0.0000       0.551039        14.9945 
 103   0.0000       0.554163        15.0796 
 104   0.0000       0.557674        15.1751 
 105   0.0000       0.573456        15.6045 
 106   0.0000       0.595089        16.1932 
 107   0.0000       0.609421        16.5832 
 108   0.0000       0.612520        16.6675 
 109   0.0000       0.622891        16.9497 
 110   0.0000       0.644486        17.5373 
 111   0.0000       0.658731        17.9250 
 112   0.0000       0.695402        18.9228 
 113   0.0000       0.699001        19.0208 
 114   0.0000       0.712991        19.4015 
 115   0.0000       0.727700        19.8017 
 116   0.0000       0.734318        19.9818 
 117   0.0000       0.759026        20.6541 
 118   0.0000       0.760697        20.6996 
 119   0.0000       0.781287        21.2599 
 120   0.0000       0.786348        21.3976 
 121   0.0000       0.801881        21.8203 
 122   0.0000       0.823651        22.4127 
 123   0.0000       0.826283        22.4843 
 124   0.0000       0.827502        22.5175 
 125   0.0000       0.850678        23.1481 
 126   0.0000       0.893692        24.3186 
 127   0.0000       0.940202        25.5842 
 128   0.0000       0.967333        26.3225 
 129   0.0000       0.978265        26.6199 
 130   0.0000       1.060584        28.8600 
 131   0.0000       1.093057        29.7436 
 132   0.0000       1.106575        30.1114 
 133   0.0000       1.130905        30.7735 
 134   0.0000       1.216870        33.1127 
 135   0.0000       1.222081        33.2545 
 136   0.0000       1.229959        33.4689 
 137   0.0000       1.249887        34.0112 
 138   0.0000       1.339447        36.4482 
 139   0.0000       1.371022        37.3074 
 140   0.0000       1.380421        37.5632 
 141   0.0000       1.432289        38.9746 
 142   0.0000       1.460907        39.7533 
 143   0.0000       1.522626        41.4328 
 144   0.0000       1.584928        43.1281 
 145   0.0000       1.586407        43.1683 
 146   0.0000       1.625564        44.2338 
 147   0.0000       1.678013        45.6610 
 148   0.0000       1.690703        46.0064 
 149   0.0000       1.715214        46.6733 
 150   0.0000       1.744294        47.4647 
 151   0.0000       1.752792        47.6959 
 152   0.0000       1.777789        48.3761 
 153   0.0000       1.826248        49.6947 
 154   0.0000       1.845416        50.2163 
 155   0.0000       1.907661        51.9101 
 156   0.0000       1.924538        52.3694 
 157   0.0000       1.927856        52.4596 
 158   0.0000       1.950998        53.0893 
 159   0.0000       1.956125        53.2289 
 160   0.0000       2.050425        55.7949 
 161   0.0000       2.069459        56.3128 
 162   0.0000       2.103619        57.2424 
 163   0.0000       2.104999        57.2799 
 164   0.0000       2.189547        59.5806 
 165   0.0000       2.197338        59.7926 
 166   0.0000       2.243090        61.0376 
 167   0.0000       2.275960        61.9320 
 168   0.0000       2.300996        62.6133 
 169   0.0000       2.317533        63.0633 
 170   0.0000       2.334477        63.5244 
 171   0.0000       2.339067        63.6492 
 172   0.0000       2.388886        65.0049 
 173   0.0000       2.391937        65.0879 
 174   0.0000       2.420978        65.8782 
 175   0.0000       2.446386        66.5696 
 176   0.0000       2.461969        66.9936 
 177   0.0000       2.482934        67.5641 
 178   0.0000       2.545025        69.2536 
 179   0.0000       2.579902        70.2027 
 180   0.0000       2.619029        71.2674 
 181   0.0000       2.637552        71.7714 
 182   0.0000       2.672739        72.7289 
 183   0.0000       2.706931        73.6594 
 184   0.0000       2.765696        75.2584 
 185   0.0000       2.998267        81.5870 
 186   0.0000       3.021980        82.2322 
 187   0.0000       3.059592        83.2557 
 188   0.0000       3.105110        84.4943 
 189   0.0000       3.193342        86.8952 
 190   0.0000       3.241791        88.2136 
 191   0.0000       3.275309        89.1257 
 192   0.0000       3.294610        89.6509 
 193   0.0000       3.305291        89.9415 
 194   0.0000       3.314976        90.2051 
 195   0.0000       3.351703        91.2045 
 196   0.0000       3.367694        91.6396 
 197   0.0000       3.372663        91.7748 
 198   0.0000       3.424452        93.1841 
 199   0.0000       3.539766        96.3219 
 200   0.0000       3.544881        96.4611 
 201   0.0000       3.591958        97.7421 
 202   0.0000       3.612109        98.2905 
 203   0.0000       3.626214        98.6743 
 204   0.0000       3.652430        99.3877 
 205   0.0000       3.707564       100.8879 
 206   0.0000       3.737930       101.7143 
 207   0.0000       3.755817       102.2010 
 208   0.0000       3.777778       102.7986 
 209   0.0000       3.877456       105.5109 
 210   0.0000       4.039528       109.9212 
 211   0.0000       4.079457       111.0077 
 212   0.0000       4.101275       111.6014 
 213   0.0000       4.135588       112.5351 
 214   0.0000       4.142315       112.7181 
 215   0.0000       4.171475       113.5116 
 216   0.0000       4.252858       115.7261 
 217   0.0000       4.257201       115.8443 
 218   0.0000       4.283824       116.5688 
 219   0.0000       4.293274       116.8259 
 220   0.0000       4.577736       124.5665 
 221   0.0000       4.720967       128.4640 
 222   0.0000       4.863826       132.3514 
 223   0.0000       4.868100       132.4677 
 224   0.0000       5.260951       143.1577 
 225   0.0000       5.451762       148.3500 
 226   0.0000       5.459660       148.5649 
 227   0.0000       5.460425       148.5857 
 228   0.0000       5.464204       148.6886 
 229   0.0000       5.468778       148.8130 
 230   0.0000       5.480503       149.1321 
 231   0.0000       5.482524       149.1871 
 232   0.0000       5.486008       149.2819 
 233   0.0000       5.519292       150.1876 
 234   0.0000       5.521126       150.2375 
[...]
      f+2     :     0.023502
      f-2     :     0.026881
      f+3     :     0.038672
      f-3     :     0.083507
  3 O s       :     3.342097  s :     3.342097
      pz      :     1.578154  p :     4.493612
      px      :     1.440204
      py      :     1.475254
      dz2     :     0.017918  d :     0.102932
      dxz     :     0.011834
      dyz     :     0.013450
      dx2y2   :     0.024782
      dxy     :     0.034948
      f0      :     0.000755  f :     0.008028
      f+1     :     0.000946
      f-1     :     0.001065
      f+2     :     0.000494
      f-2     :     0.000972
      f+3     :     0.001549
      f-3     :     0.002246
  4 O s       :     3.400849  s :     3.400849
      pz      :     1.364036  p :     4.443919
      px      :     1.459827
      py      :     1.620057
      dz2     :     0.013832  d :     0.092492
      dxz     :     0.019708
      dyz     :     0.005553
      dx2y2   :     0.033295
      dxy     :     0.020103
      f0      :     0.000821  f :     0.009039
      f+1     :     0.001483
      f-1     :     0.000440
      f+2     :     0.001240
      f-2     :     0.000449
      f+3     :     0.002608
      f-3     :     0.001997
  5 O s       :     3.494905  s :     3.494905
      pz      :     1.449279  p :     4.354835
      px      :     1.461024
      py      :     1.444531
      dz2     :     0.086011  d :     0.166435
      dxz     :     0.031101
      dyz     :     0.033135
      dx2y2   :     0.009190
      dxy     :     0.006998
      f0      :     0.007644  f :     0.016459
      f+1     :     0.003024
      f-1     :     0.003383
      f+2     :     0.001084
      f-2     :     0.000608
      f+3     :     0.000346
      f-3     :     0.000371
  6 O s       :     3.494918  s :     3.494918
      pz      :     1.449326  p :     4.354855
      px      :     1.461194
      py      :     1.444335
      dz2     :     0.085972  d :     0.166420
      dxz     :     0.030442
      dyz     :     0.033500
      dx2y2   :     0.009358
      dxy     :     0.007148
      f0      :     0.007654  f :     0.016457
      f+1     :     0.002887
      f-1     :     0.003463
      f+2     :     0.001108
      f-2     :     0.000628
      f+3     :     0.000346
      f-3     :     0.000372


                      *****************************
                      * MAYER POPULATION ANALYSIS *
                      *****************************

  NA   - Mulliken gross atomic population
  ZA   - Total nuclear charge
  QA   - Mulliken gross atomic charge
  VA   - Mayer's total valence
  BVA  - Mayer's bonded valence
  FA   - Mayer's free valence

  ATOM       NA         ZA         QA         VA         BVA        FA
  0 Pu    91.6583    94.0000     2.3417     3.0378     1.5499     1.4878
  1 O      8.6911     8.0000    -0.6911     1.9221     1.4286     0.4936
  2 C      5.2635     6.0000     0.7365     4.0802     3.7187     0.3615
  3 O      8.6778     8.0000    -0.6778     1.9107     1.4247     0.4860
  4 O      8.4984     8.0000    -0.4984     2.1902     1.7433     0.4469
  5 O      8.6054     8.0000    -0.6054     1.2949     0.7244     0.5706
  6 O      8.6054     8.0000    -0.6054     1.2952     0.7246     0.5706

  Mayer bond orders larger than 0.1
B(  0-Pu,  1-O ) :   0.3985 B(  0-Pu,  3-O ) :   0.3420 B(  0-Pu,  5-O ) :   0.4470 
B(  0-Pu,  6-O ) :   0.4472 B(  1-O ,  2-C ) :   0.9760 B(  2-C ,  3-O ) :   1.0258 
B(  2-C ,  4-O ) :   1.7796 B(  5-O ,  6-O ) :   0.1749 


                *******************************************
                * RELAXED MP2 DENSITY POPULATION ANALYSIS *
                *******************************************

------------------------------------------------------------------------------
                           ORCA POPULATION ANALYSIS
------------------------------------------------------------------------------
Input electron density              ... /home/nikolayandreadi_2125/_scratch/MP2/PuO2_CO3.pmp2re
BaseName (.gbw .S,...)              ... /home/nikolayandreadi_2125/_scratch/MP2/PuO2_CO3

                    ********************************
                    * MULLIKEN POPULATION ANALYSIS *
                    ********************************

-----------------------
MULLIKEN ATOMIC CHARGES
-----------------------
   0 Pu:    1.695514
   1 O :   -0.530741
   2 C :    0.532672
   3 O :   -0.525405
   4 O :   -0.375977
   5 O :   -0.398013
   6 O :   -0.398050
Sum of atomic charges:   -0.0000000

--------------------------------
MULLIKEN REDUCED ORBITAL CHARGES
--------------------------------
  0 Pus       :    12.681191  s :    12.681191
      pz      :     9.499434  p :    29.386740
      px      :     9.918379
      py      :     9.968927
      dz2     :     6.153486  d :    31.455480
      dxz     :     6.479515
      dyz     :     6.453079
      dx2y2   :     6.096970
      dxy     :     6.272430
      f0      :     3.089540  f :    18.781075
      f+1     :     2.632296
      f-1     :     2.641733
      f+2     :     3.972137
      f-2     :     2.171358
      f+3     :     2.066467
      f-3     :     2.207545
  1 O s       :     3.932711  s :     3.932711
      pz      :     1.650798  p :     4.532519
      px      :     1.469401
      py      :     1.412320
      dz2     :     0.009296  d :     0.061179
      dxz     :     0.008914
      dyz     :     0.012126
      dx2y2   :     0.014141
      dxy     :     0.016702
      f0      :     0.000620  f :     0.004332
      f+1     :     0.000592
      f-1     :     0.000635
      f+2     :     0.000447
      f-2     :     0.000580
      f+3     :     0.000653
      f-3     :     0.000805
  2 C s       :     2.928538  s :     2.928538
      pz      :     0.804424  p :     2.194285
      px      :     0.669029
      py      :     0.720832
      dz2     :     0.004373  d :     0.310448
      dxz     :     0.086739
      dyz     :     0.044521
      dx2y2   :     0.078281
      dxy     :     0.096534
      f0      :     0.003826  f :     0.034057
      f+1     :     0.002040
      f-1     :     0.001486
      f+2     :     0.003755
      f-2     :     0.004500
      f+3     :     0.006154
      f-3     :     0.012296
  3 O s       :     3.931097  s :     3.931097
      pz      :     1.663778  p :     4.528991
      px      :     1.450148
      py      :     1.415065
      dz2     :     0.009516  d :     0.060933
      dxz     :     0.008612
      dyz     :     0.012334
      dx2y2   :     0.013594
      dxy     :     0.016877
      f0      :     0.000628  f :     0.004385
      f+1     :     0.000601
      f-1     :     0.000644
      f+2     :     0.000442
      f-2     :     0.000594
      f+3     :     0.000669
      f-3     :     0.000806
  4 O s       :     3.885916  s :     3.885916
      pz      :     1.416068  p :     4.425689
      px      :     1.285277
      py      :     1.724344
      dz2     :     0.008129  d :     0.059486
      dxz     :     0.017001
      dyz     :     0.005610
      dx2y2   :     0.014370
      dxy     :     0.014377
      f0      :     0.000571  f :     0.004885
      f+1     :     0.000605
      f-1     :     0.000362
      f+2     :     0.000910
      f-2     :     0.000398
      f+3     :     0.000953
      f-3     :     0.001087
  5 O s       :     4.061681  s :     4.061681
      pz      :     1.329772  p :     4.253223
      px      :     1.468615
      py      :     1.454836
      dz2     :     0.017593  d :     0.075797
      dxz     :     0.021695
      dyz     :     0.021645
      dx2y2   :     0.008339
      dxy     :     0.006525
      f0      :     0.002145  f :     0.007312
      f+1     :     0.001621
      f-1     :     0.001645
      f+2     :     0.000714
      f-2     :     0.000491
      f+3     :     0.000343
      f-3     :     0.000353
  6 O s       :     4.061693  s :     4.061693
      pz      :     1.330308  p :     4.253254
      px      :     1.467960
      py      :     1.454985
      dz2     :     0.017680  d :     0.075793
      dxz     :     0.021562
      dyz     :     0.021528
      dx2y2   :     0.008405
      dxy     :     0.006619
      f0      :     0.002154  f :     0.007311
      f+1     :     0.001593
      f-1     :     0.001650
      f+2     :     0.000717
      f-2     :     0.000500
      f+3     :     0.000343
      f-3     :     0.000353


                     *******************************
                     * LOEWDIN POPULATION ANALYSIS *
                     *******************************

----------------------
LOEWDIN ATOMIC CHARGES
----------------------
   0 Pu:    0.103024
   1 O :    0.130373
   2 C :   -0.621361
   3 O :    0.139527
   4 O :    0.115431
   5 O :    0.066507
   6 O :    0.066499

-------------------------------
LOEWDIN REDUCED ORBITAL CHARGES
-------------------------------
  0 Pus       :    11.999587  s :    11.999587
      pz      :     9.678740  p :    29.568186
      px      :     9.933576
      py      :     9.955871
      dz2     :     6.802883  d :    32.522293
      dxz     :     6.547114
      dyz     :     6.563407
      dx2y2   :     6.166113
      dxy     :     6.442777
      f0      :     3.519705  f :    19.806910
      f+1     :     2.813181
      f-1     :     2.808251
      f+2     :     3.980283
      f-2     :     2.231933
      f+3     :     2.143496
      f-3     :     2.310062
  1 O s       :     3.359262  s :     3.359262
      pz      :     1.517128  p :     4.393298
      px      :     1.434190
      py      :     1.441980
      dz2     :     0.018460  d :     0.108788
      dxz     :     0.014079
      dyz     :     0.014953
      dx2y2   :     0.026260
      dxy     :     0.035036
      f0      :     0.000828  f :     0.008279
      f+1     :     0.000950
      f-1     :     0.001045
      f+2     :     0.000555
      f-2     :     0.001101
      f+3     :     0.001435
      f-3     :     0.002366
  2 C s       :     2.710813  s :     2.710813
      pz      :     0.764153  p :     2.567425
      px      :     0.958541
      py      :     0.844731
      dz2     :     0.083252  d :     1.142140
      dxz     :     0.210640
      dyz     :     0.126817
      dx2y2   :     0.320969
      dxy     :     0.400462
      f0      :     0.011895  f :     0.200982
      f+1     :     0.014708
      f-1     :     0.011638
      f+2     :     0.022671
      f-2     :     0.024677
      f+3     :     0.038733
      f-3     :     0.076660
  3 O s       :     3.349770  s :     3.349770
      pz      :     1.530927  p :     4.395293
      px      :     1.414433
      py      :     1.449933
      dz2     :     0.018202  d :     0.107068
      dxz     :     0.013331
      dyz     :     0.015137
      dx2y2   :     0.025574
      dxy     :     0.034825
      f0      :     0.000835  f :     0.008341
      f+1     :     0.000958
      f-1     :     0.001063
      f+2     :     0.000525
      f-2     :     0.001113
      f+3     :     0.001513
      f-3     :     0.002335
  4 O s       :     3.403049  s :     3.403049
      pz      :     1.333132  p :     4.378576
      px      :     1.462468
      py      :     1.582976
      dz2     :     0.013716  d :     0.093652
      dxz     :     0.021874
      dyz     :     0.005583
      dx2y2   :     0.031669
      dxy     :     0.020811
      f0      :     0.000938  f :     0.009293
      f+1     :     0.001464
      f-1     :     0.000439
      f+2     :     0.001438
      f-2     :     0.000449
      f+3     :     0.002531
      f-3     :     0.002033
  5 O s       :     3.510442  s :     3.510442
      pz      :     1.486556  p :     4.234472
      px      :     1.375190
      py      :     1.372725
      dz2     :     0.087360  d :     0.171721
      dxz     :     0.032420
      dyz     :     0.033920
      dx2y2   :     0.010782
      dxy     :     0.007239
      f0      :     0.007594  f :     0.016858
      f+1     :     0.003184
      f-1     :     0.003471
      f+2     :     0.001250
      f-2     :     0.000635
      f+3     :     0.000346
      f-3     :     0.000378
  6 O s       :     3.510455  s :     3.510455
      pz      :     1.486050  p :     4.234485
      px      :     1.374823
      py      :     1.373613
      dz2     :     0.087370  d :     0.171705
      dxz     :     0.031720
      dyz     :     0.034300
      dx2y2   :     0.010949
      dxy     :     0.007366
      f0      :     0.007608  f :     0.016855
      f+1     :     0.003052
      f-1     :     0.003545
      f+2     :     0.001271
      f-2     :     0.000654
      f+3     :     0.000346
      f-3     :     0.000378


                      *****************************
                      * MAYER POPULATION ANALYSIS *
                      *****************************

  NA   - Mulliken gross atomic population
  ZA   - Total nuclear charge
  QA   - Mulliken gross atomic charge
  VA   - Mayer's total valence
  BVA  - Mayer's bonded valence
  FA   - Mayer's free valence

  ATOM       NA         ZA         QA         VA         BVA        FA
  0 Pu    92.3045    94.0000     1.6955     3.4132     2.2702     1.1430
  1 O      8.5307     8.0000    -0.5307     2.1141     1.6652     0.4488
  2 C      5.4673     6.0000     0.5327     4.2498     3.9138     0.3359
  3 O      8.5254     8.0000    -0.5254     2.0959     1.6486     0.4473
  4 O      8.3760     8.0000    -0.3760     2.3446     1.9164     0.4283
  5 O      8.3980     8.0000    -0.3980     1.4233     0.9312     0.4921
  6 O      8.3981     8.0000    -0.3981     1.4235     0.9314     0.4921

  Mayer bond orders larger than 0.1
B(  0-Pu,  1-O ) :   0.5690 B(  0-Pu,  3-O ) :   0.4873 B(  0-Pu,  5-O ) :   0.6345 
B(  0-Pu,  6-O ) :   0.6348 B(  1-O ,  2-C ) :   1.0020 B(  2-C ,  3-O ) :   1.0524 
B(  2-C ,  4-O ) :   1.9001 B(  5-O ,  6-O ) :   0.1702 


----------------------------------
MP2 DERIVATIVE INTEGRAL GENERATION
----------------------------------


Input Wavefunction Amplitudes       ... /home/nikolayandreadi_2125/_scratch/MP2/PuO2_CO3.mp2tsaa.tmp.proc19
Input Correlated Electron Density   ... /home/nikolayandreadi_2125/_scratch/MP2/PuO2_CO3.pmp2re
Input Energy Weighted Density       ... /home/nikolayandreadi_2125/_scratch/MP2/PuO2_CO3.wmp2.tmp
Input SCF Electron Density          ... /home/nikolayandreadi_2125/_scratch/MP2/PuO2_CO3.scfp.tmp

One-Electron Terms    ...
                        ... One-Electron Terms done
Prescreening matrices              ... done

Batch handling in the gradient evaluation:
Memory available                      ... 31500.0 MB
Memory per occupied orbital in Q2     ...   28.2 MB
Memory per occupied orbital in Q3     ...    0.1 MB
Total memory requirement per |i>      ...   28.3 MB
Max. Number of orbitals possible      ...   1111
Number of orbitals treated per batch  ...     30
Number of batches to be done          ...      1
Batch   0: i=   40 ...    69

---------------------------------------
MP2 TOTAL ENERGY:   -29953.293802763 Eh
---------------------------------------

-----------------------------------
NORM OF THE MP2 GRADIENT:  0.000370
-----------------------------------

-------------------------   --------------------
FINAL SINGLE POINT ENERGY    -29953.293802763190
-------------------------   --------------------

                                *** OPTIMIZATION RUN DONE ***

                            ***************************************
                            *     ORCA property calculations      *
                            ***************************************

                                    ---------------------
                                    Active property flags
                                    ---------------------
   (+) Dipole Moment


------------------------------------------------------------------------------
                       ORCA ELECTRIC PROPERTIES CALCULATION
------------------------------------------------------------------------------

Dipole Moment Calculation                       ... on
Quadrupole Moment Calculation                   ... off
Polarizability Calculation                      ... off
GBWName                                         ... /home/nikolayandreadi_2125/_scratch/MP2/PuO2_CO3.gbw
Electron density file                           ... /home/nikolayandreadi_2125/_scratch/MP2/PuO2_CO3.scfp.tmp
The origin for moment calculation is the CENTER OF MASS  = (-4.599540, -0.097323  0.103161)

-------------
DIPOLE MOMENT
-------------
                                X             Y             Z
Electronic contribution:    -27.15090      -1.58241       0.62157
Nuclear contribution   :     22.74947       1.31671      -0.52086
                        -----------------------------------------
Total Dipole Moment    :     -4.40143      -0.26571       0.10071
                        -----------------------------------------
Magnitude (a.u.)       :      4.41059
Magnitude (Debye)      :     11.21083


                         *** MP2 UNRELAXED DENSITY ***

------------------------------------------------------------------------------
                       ORCA ELECTRIC PROPERTIES CALCULATION
------------------------------------------------------------------------------

Dipole Moment Calculation                       ... on
Quadrupole Moment Calculation                   ... off
Polarizability Calculation                      ... off
GBWName                                         ... /home/nikolayandreadi_2125/_scratch/MP2/PuO2_CO3.gbw
Electron density file                           ... /home/nikolayandreadi_2125/_scratch/MP2/PuO2_CO3.pmp2ur
The origin for moment calculation is the CENTER OF MASS  = (-4.599540, -0.097323  0.103161)

-------------
DIPOLE MOMENT
-------------
                                X             Y             Z
Electronic contribution:    -26.99850      -1.54757       0.61790
Nuclear contribution   :     22.74947       1.31671      -0.52086
                        -----------------------------------------
Total Dipole Moment    :     -4.24903      -0.23086       0.09705
                        -----------------------------------------
Magnitude (a.u.)       :      4.25640
Magnitude (Debye)      :     10.81891


                           *** MP2 RELAXED DENSITY ***

------------------------------------------------------------------------------
                       ORCA ELECTRIC PROPERTIES CALCULATION
------------------------------------------------------------------------------

Dipole Moment Calculation                       ... on
Quadrupole Moment Calculation                   ... off
Polarizability Calculation                      ... off
GBWName                                         ... /home/nikolayandreadi_2125/_scratch/MP2/PuO2_CO3.gbw
Electron density file                           ... /home/nikolayandreadi_2125/_scratch/MP2/PuO2_CO3.pmp2re
The origin for moment calculation is the CENTER OF MASS  = (-4.599540, -0.097323  0.103161)

-------------
DIPOLE MOMENT
-------------
                                X             Y             Z
Electronic contribution:    -26.40075      -1.44345       0.60378
Nuclear contribution   :     22.74947       1.31671      -0.52086
                        -----------------------------------------
Total Dipole Moment    :     -3.65128      -0.12674       0.08292
                        -----------------------------------------
Magnitude (a.u.)       :      3.65442
Magnitude (Debye)      :      9.28881


Timings for individual modules:

Sum of individual times         ...    17409.420 sec (= 290.157 min)
GTO integral calculation        ...       40.541 sec (=   0.676 min)   0.2 %
Relativistic integrals          ...       15.261 sec (=   0.254 min)   0.1 %
SCF iterations                  ...     5687.059 sec (=  94.784 min)  32.7 %
MP2 module                      ...    11665.472 sec (= 194.425 min)  67.0 %
Geometry relaxation             ...        1.086 sec (=   0.018 min)   0.0 %
                             ****ORCA TERMINATED NORMALLY****
TOTAL RUN TIME: 0 days 4 hours 50 minutes 15 seconds 386 msec
