
                                 *****************
                                 * O   R   C   A *
                                 *****************

           --- An Ab Initio, DFT and Semiempirical electronic structure package ---

                  #######################################################
                  #                        -***-                        #
                  #  Department of molecular theory and spectroscopy    #
                  #              Directorship: Frank Neese              #
                  # Max Planck Institute for Chemical Energy Conversion #
                  #                  D-45470 Muelheim/Ruhr              #
                  #                       Germany                       #
                  #                                                     #
                  #                  All rights reserved                #
                  #                        -***-                        #
                  #######################################################


                         Program Version 4.0.1.2 - RELEASE -


 With contributions from (in alphabetic order):
   Daniel Aravena         : Magnetic Properties
   Michael Atanasov       : Ab Initio Ligand Field Theory
   Ute Becker             : Parallelization
   Martin Brehm           : Molecular dynamics
   Dmytro Bykov           : SCF Hessian
   Vijay G. Chilkuri      : MRCI spin determinant printing
   Dipayan Datta          : RHF DLPNO-CCSD density
   Achintya Kumar Dutta   : EOM-CC, STEOM-CC
   Dmitry Ganyushin       : Spin-Orbit,Spin-Spin,Magnetic field MRCI
   Yang Guo               : DLPNO-NEVPT2, CIM, IAO-localization
   Andreas Hansen         : Spin unrestricted coupled pair/coupled cluster methods
   Lee Huntington         : MR-EOM, pCC
   Robert Izsak           : Overlap fitted RIJCOSX, COSX-SCS-MP3, EOM
   Christian Kollmar      : KDIIS, OOCD, Brueckner-CCSD(T), CCSD density
   Simone Kossmann        : Meta GGA functionals, TD-DFT gradient, OOMP2, MP2 Hessian
   Martin Krupicka        : AUTO-CI
   Dagmar Lenk            : GEPOL surface
   Dimitrios Liakos       : Extrapolation schemes; parallel MDCI
   Dimitrios Manganas     : ROCIS; embedding schemes
   Dimitrios Pantazis     : SARC Basis sets
   Taras Petrenko         : DFT Hessian,TD-DFT gradient, ASA, ECA, R-Raman, ABS, FL, XAS/XES, NRVS
   Peter Pinski           : DLPNO-MP2
   Christoph Reimann      : Effective Core Potentials
   Marius Retegan         : Local ZFS, SOC
   Christoph Riplinger    : Optimizer, TS searches, QM/MM, DLPNO-CCSD(T), (RO)-DLPNO pert. Triples
   Tobias Risthaus        : Range-separated hybrids, TD-DFT gradient, RPA, STAB
   Michael Roemelt        : Restricted open shell CIS
   Masaaki Saitow         : Open-shell DLPNO
   Barbara Sandhoefer     : DKH picture change effects
   Kantharuban Sivalingam : CASSCF convergence, NEVPT2, FIC-MRCI
   Georgi Stoychev        : AutoAux
   Boris Wezisla          : Elementary symmetry handling
   Frank Wennmohs         : Technical directorship


 We gratefully acknowledge several colleagues who have allowed us to
 interface, adapt or use parts of their codes:
   Stefan Grimme, W. Hujo, H. Kruse,             : VdW corrections, initial TS optimization,
                  C. Bannwarth                     DFT functionals, gCP, sTDA/sTD-DF
   Ed Valeev                                     : LibInt (2-el integral package), F12 methods
   Garnet Chan, S. Sharma, J. Yang, R. Olivares  : DMRG
   Ulf Ekstrom                                   : XCFun DFT Library
   Mihaly Kallay                                 : mrcc  (arbitrary order and MRCC methods)
   Andreas Klamt, Michael Diedenhofen            : otool_cosmo (COSMO solvation model)
   Jiri Pittner, Ondrej Demel                    : Mk-CCSD
   Frank Weinhold                                : gennbo (NPA and NBO analysis)
   Christopher J. Cramer and Donald G. Truhlar   : smd solvation model


 Your calculation uses the libint2 library for the computation of 2-el integrals
 For citations please refer to: http://libint.valeyev.net

 This ORCA versions uses:
   CBLAS   interface :  Fast vector & matrix operations
   LAPACKE interface :  Fast linear algebra routines
   SCALAPACK package :  Parallel linear algebra routines


Your calculation utilizes the basis: DKH-def2-TZVP
   Exponents from def2-TZVP [F. Weigend and R. Ahlrichs, Phys. Chem. Chem. Phys. 7, 3297 (2005)],
   recontracted for DKH2 by D. A. Pantazis.

Your calculation utilizes the auxiliary basis: SARC/J 
   decontracted def2/J up to Kr:
   F. Weigend, Phys. Chem. Chem. Phys. 8, 1057 (2006)
   and SARC auxiliary basis sets beyond Kr:
   D. A. Pantazis and F. Neese, J. Chem. Theory Comput. 5, 2229 (2009).
   D. A. Pantazis, X. Y. Chen, C. R. Landis and F. Neese, J. Chem. Theory Comput. 4, 908 (2008).
   D. A. Pantazis and F. Neese, Theor. Chem. Acc. 131, 1292 (2012).
   D. A. Pantazis and F. Neese, J. Chem. Theory Comput. 7, 677 (2011).

================================================================================
                                        WARNINGS
                       Please study these warnings very carefully!
================================================================================

Warning: TCutStore was < 0. Adjusted to Thresh (uncritical)

WARNING: In scalar relativistic gradient/hessian runs we need the one-center approximation
  ===> : %rel OneCenter is turned on

WARNING: The frozen-core approximation for MP2-gradient calculations is turned on by default.

WARNING: Geometry Optimization
  ===> : Switching off AutoStart
         For restart on a previous wavefunction, please use MOREAD

WARNING: Post HF methods need fully converged wavefunctions
  ===> : Setting SCFConvForced true
         You can overwrite this default with %scf ConvForced false 


INFO   : the flag for use of LIBINT has been found!

================================================================================
                                       INPUT FILE
================================================================================
NAME = /home/nikolayandreadi_2125/_scratch/MP2/PuO2_SO4.inp
|  1> !Opt MP2 DKH-def2-TZVP DKH SARC/J SlowConv
|  2> 
|  3> %pal
|  4> nproc 20
|  5> end
|  6> 
|  7> %maxcore 31500
|  8> 
|  9> %basis
| 10> newgto Pu "SARC-DKH-TZVP" end
| 11> end
| 12> 
| 13> %scf
| 14> MaxIter 5000
| 15> Guess HCore
| 16> end
| 17> 
| 18> %method
| 19> Z_MaxIter 5000
| 20> end
| 21> 
| 22> * xyz 0 1
| 23>   O      0.888227   -0.570794   -0.920455
| 24>   Pu     0.650616    1.106852   -0.529873
| 25>   O      2.024544    1.873088   -1.292060
| 26>   O     -0.034391    2.872769    0.317083
| 27>   S     -1.303026    2.281796    1.172339
| 28>   O     -1.098855    0.769502    0.630545
| 29>   O     -0.962593    2.335976    2.569886
| 30>   O     -2.515481    2.835940    0.635734
| 31> **                         ****END OF INPUT****
================================================================================

                       *****************************
                       * Geometry Optimization Run *
                       *****************************

Geometry optimization settings:
Update method            Update   .... BFGS
Choice of coordinates    CoordSys .... Redundant Internals
Initial Hessian          InHess   .... Almoef's Model

Convergence Tolerances:
Energy Change            TolE     ....  5.0000e-06 Eh
Max. Gradient            TolMAXG  ....  3.0000e-04 Eh/bohr
RMS Gradient             TolRMSG  ....  1.0000e-04 Eh/bohr
Max. Displacement        TolMAXD  ....  4.0000e-03 bohr
RMS Displacement         TolRMSD  ....  2.0000e-03 bohr

------------------------------------------------------------------------------
                        ORCA OPTIMIZATION COORDINATE SETUP
------------------------------------------------------------------------------

The optimization will be done in new redundant internal coordinates
Making redundant internal coordinates   ...  (new redundants) done
Evaluating the initial hessian          ...  (Almloef) done
Evaluating the coordinates              ...  done
Calculating the B-matrix                .... done
Calculating the G-matrix                .... done
Diagonalizing the G-matrix              .... done
The first mode is                       ....   16
The number of degrees of freedom        ....   18

    -----------------------------------------------------------------
                    Redundant Internal Coordinates


    -----------------------------------------------------------------
         Definition                    Initial Value    Approx d2E/dq
    -----------------------------------------------------------------
      1. B(Pu  1,O   0)                  1.7388         0.522207   
      2. B(O   2,Pu  1)                  1.7481         0.504780   
      3. B(O   3,Pu  1)                  2.0749         0.151958   
      4. B(S   4,O   3)                  1.6402         0.601892   
      5. B(O   5,S   4)                  1.6193         0.649751   
      6. B(O   5,Pu  1)                  2.1263         0.125805   
      7. B(O   6,S   4)                  1.4394         1.258276   
      8. B(O   7,S   4)                  1.4370         1.269413   
      9. A(O   0,Pu  1,O   3)          163.3283         0.369376   
     10. A(O   0,Pu  1,O   2)          102.5663         0.456916   
     11. A(O   2,Pu  1,O   5)          162.5907         0.355587   
     12. A(O   2,Pu  1,O   3)           93.6924         0.367231   
     13. A(O   3,Pu  1,O   5)           68.9377         0.292157   
     14. A(O   0,Pu  1,O   5)           94.7005         0.357643   
     15. A(Pu  1,O   3,S   4)           99.2970         0.374531   
     16. A(O   6,S   4,O   7)          123.2008         0.626959   
     17. A(O   5,S   4,O   7)          109.9725         0.552216   
     18. A(O   3,S   4,O   7)          108.5991         0.544263   
     19. A(O   5,S   4,O   6)          109.2793         0.551293   
     20. A(O   3,S   4,O   6)          108.0458         0.543356   
     21. A(O   3,S   4,O   5)           93.6986         0.480229   
     22. A(Pu  1,O   5,S   4)           97.9417         0.367362   
     23. D(S   4,O   3,Pu  1,O   0)     -9.0801         0.001818   
     24. D(S   4,O   3,Pu  1,O   2)   -176.3568         0.001818   
     25. D(S   4,O   3,Pu  1,O   5)      2.4393         0.001818   
     26. D(O   7,S   4,O   3,Pu  1)   -115.5089         0.008487   
     27. D(O   6,S   4,O   3,Pu  1)    108.6609         0.008487   
     28. D(O   5,S   4,O   3,Pu  1)     -2.9956         0.008487   
     29. D(S   4,O   5,Pu  1,O   0)    174.2427         0.001718   
     30. D(Pu  1,O   5,S   4,O   7)    114.2314         0.009727   
     31. D(Pu  1,O   5,S   4,O   6)   -107.6651         0.009727   
     32. D(Pu  1,O   5,S   4,O   3)      2.9127         0.009727   
     33. D(S   4,O   5,Pu  1,O   3)     -2.4618         0.001718   
     34. D(S   4,O   5,Pu  1,O   2)      1.5566         0.001718   
    -----------------------------------------------------------------

Number of atoms                         .... 8
Number of degrees of freedom            .... 34

         *************************************************************
         *                GEOMETRY OPTIMIZATION CYCLE   1            *
         *************************************************************
---------------------------------
CARTESIAN COORDINATES (ANGSTROEM)
---------------------------------
  O      0.888227   -0.570794   -0.920455
  Pu     0.650616    1.106852   -0.529873
  O      2.024544    1.873088   -1.292060
  O     -0.034391    2.872769    0.317083
  S     -1.303026    2.281796    1.172339
  O     -1.098855    0.769502    0.630545
  O     -0.962593    2.335976    2.569886
  O     -2.515481    2.835940    0.635734

----------------------------
CARTESIAN COORDINATES (A.U.)
----------------------------
  NO LB      ZA    FRAG     MASS         X           Y           Z
   0 O     8.0000    0    15.999    1.678506   -1.078644   -1.739408
   1 Pu   94.0000    0   244.000    1.229486    2.091647   -1.001315
   2 O     8.0000    0    15.999    3.825834    3.539623   -2.441640
   3 O     8.0000    0    15.999   -0.064990    5.428747    0.599200
   4 S    16.0000    0    32.060   -2.462362    4.311970    2.215400
   5 O     8.0000    0    15.999   -2.076535    1.454148    1.191557
   6 O     8.0000    0    15.999   -1.819037    4.414355    4.856381
   7 O     8.0000    0    15.999   -4.753570    5.359150    1.201363

--------------------------------
INTERNAL COORDINATES (ANGSTROEM)
--------------------------------
 O      0   0   0     0.000000000000     0.00000000     0.00000000
 Pu     1   0   0     1.738824139285     0.00000000     0.00000000
 O      2   1   0     1.748063150990   102.56626295     0.00000000
 O      2   1   3     2.074857081072   163.32828984   193.01349590
 S      4   2   1     1.640166660888    99.29697998   350.91987001
 O      5   4   2     1.619339272084    93.69863704   357.00436815
 O      5   4   2     1.439433123524   108.04580822   108.66087541
 O      5   4   2     1.437034316148   108.59909449   244.49111226

---------------------------
INTERNAL COORDINATES (A.U.)
---------------------------
 O      0   0   0     0.000000000000     0.00000000     0.00000000
 Pu     1   0   0     3.285901418300     0.00000000     0.00000000
 O      2   1   0     3.303360620170   102.56626295     0.00000000
 O      2   1   3     3.920911650253   163.32828984   193.01349590
 S      4   2   1     3.099465803067    99.29697998   350.91987001
 O      5   4   2     3.060107742142    93.69863704   357.00436815
 O      5   4   2     2.720134391555   108.04580822   108.66087541
 O      5   4   2     2.715601302566   108.59909449   244.49111226

---------------------
BASIS SET INFORMATION
---------------------
There are 3 groups of distinct atoms

 Group   1 Type O   : 11s6p2d1f contracted to 6s3p2d1f pattern {611111/411/11/1}
 Group   2 Type Pu  : 29s20p16d12f contracted to 21s13p10d7f pattern {911111111111111111111/8111111111111/7111111111/6111111}
 Group   3 Type S   : 14s9p3d1f contracted to 8s4p2d1f pattern {71111111/6111/21/1}

Atom   0O    basis set group =>   1
Atom   1Pu   basis set group =>   2
Atom   2O    basis set group =>   1
Atom   3O    basis set group =>   1
Atom   4S    basis set group =>   3
Atom   5O    basis set group =>   1
Atom   6O    basis set group =>   1
Atom   7O    basis set group =>   1

INFORMATION: There is an auxiliary basis set but the global RI flag is NOT set

-------------------------------
AUXILIARY BASIS SET INFORMATION
-------------------------------
There are 3 groups of distinct atoms

 Group   1 Type O   : 12s5p4d2f1g contracted to 12s5p4d2f1g pattern {111111111111/11111/1111/11/1}
 Group   2 Type Pu  : 33s10p8d6f4g2h1i contracted to 33s10p8d6f4g2h1i pattern {111111111111111111111111111111111/1111111111/11111111/111111/1111/11/1}
 Group   3 Type S   : 14s5p5d2f1g contracted to 14s5p5d2f1g pattern {11111111111111/11111/11111/11/1}

Atom   0O    basis set group =>   1
Atom   1Pu   basis set group =>   2
Atom   2O    basis set group =>   1
Atom   3O    basis set group =>   1
Atom   4S    basis set group =>   3
Atom   5O    basis set group =>   1
Atom   6O    basis set group =>   1
Atom   7O    basis set group =>   1


           ************************************************************
           *        Program running with 20 parallel MPI-processes    *
           *              working on a common directory               *
           ************************************************************
------------------------------------------------------------------------------
                           ORCA GTO INTEGRAL CALCULATION
------------------------------------------------------------------------------

                         BASIS SET STATISTICS AND STARTUP INFO

 # of primitive gaussian shells          ...  224
 # of primitive gaussian functions       ...  592
 # of contracted shells                  ...  138
 # of contracted basis functions         ...  388
 Highest angular momentum                ...    3
 Maximum contraction depth               ...    9
 Integral package used                   ... LIBINT
 Integral threshhold            Thresh   ...  2.500e-11
 Primitive cut-off              TCut     ...  2.500e-12


------------------------------ INTEGRAL EVALUATION ----------------------------


 * One electron integrals 
 Pre-screening matrix                    ... done
 Shell pair data                         ... done (   0.002 sec)

------------------------------------------------------------------------------
                          ORCA RELATIVISTIC HAMILTONIAN
------------------------------------------------------------------------------

Relativistic Method            ... DKH
Order of DKH treatment         ...   2
Treatment of potential         ... V(e,N)
Eps parameter for DKH          ...   0.00000000010000
Nucleus model                  ... Point Nucleus
Speed of light used            ... 137.03598950000000


            ************************************************
            *        DOUGLAS-KROLL-HESS HAMILTONIAN        *
            *   Programmed by FN according to literature   *
            *        procedures. Special thanks to         *
            *       B.A. Hess, M. Reiher and A. Wolf       *
            *     University Erlangen-Nuernberg/Bonn       *
            ************************************************

Uncontracting the basis (first version)        ... done
Number of contracted basis functions           ...  388
Number of uncontracted basis functions         ...  592
Initializing the DKH file                      ... done
One center approximation for DKH is active
Finding unique atoms                      ... 3 atom types
 ATOMIC NUMBER   8
          ... doing integrals          ... Computing the DKH transformation
          ... Transforming V and pVp to p**2 space
          ... First transformation of V and pVp
          ... Second transformation of Veff
          ... Adding kinetic energy
          ... Back transformation of Veff to r-space
          ... Recontracting the H-matrix
          ... Computing the DKH correction to the H-matrix
          ... adding submatrics to 6 actual atoms
 ATOMIC NUMBER  94
          ... doing integrals          ... Computing the DKH transformation
          ... Transforming V and pVp to p**2 space
          ... First transformation of V and pVp
          ... Second transformation of Veff
          ... Adding kinetic energy
          ... Back transformation of Veff to r-space
          ... Recontracting the H-matrix
          ... Computing the DKH correction to the H-matrix
          ... adding submatrics to 1 actual atoms
 ATOMIC NUMBER  16
          ... doing integrals          ... Computing the DKH transformation
          ... Transforming V and pVp to p**2 space
          ... First transformation of V and pVp
          ... Second transformation of Veff
          ... Adding kinetic energy
          ... Back transformation of Veff to r-space
          ... Recontracting the H-matrix
          ... Computing the DKH correction to the H-matrix
          ... adding submatrics to 1 actual atoms
Storing DKH matrices                           ... done
Getting S**(-1/2)                              ... done
Reading the original H-matrix                  ... done
Adding DKH correction to the H-matrix          ... done
Storing the new modified H-matrix              ... done


           ************************************************************
           *        Program running with 20 parallel MPI-processes    *
           *              working on a common directory               *
           ************************************************************
-------------------------------------------------------------------------------
                                 ORCA SCF
-------------------------------------------------------------------------------

------------
SCF SETTINGS
------------
Hamiltonian:
 Ab initio Hamiltonian  Method          .... Hartree-Fock(GTOs)

Relativistic Settings:
 Scalar relativistic method             .... Douglas-Kroll-Hess
 Order of DKH procedure    Order        ....    2
 Mode of DKH-treatment                  .... V=V(e,N)
 Speed of light used       Velit        ....       137.035989
 Cutoff-constant           Eps          ....            1e-10 


General Settings:
 Integral files         IntName         .... /home/nikolayandreadi_2125/_scratch/MP2/PuO2_SO4
 Hartree-Fock type      HFTyp           .... RHF
 Total Charge           Charge          ....    0
 Multiplicity           Mult            ....    1
 Number of Electrons    NEL             ....  158
 Basis Dimension        Dim             ....  388
 Nuclear Repulsion      ENuc            ....   1700.7481799772 Eh

Convergence Acceleration:
 DIIS                   CNVDIIS         .... on
   Start iteration      DIISMaxIt       ....     0
   Startup error        DIISStart       ....  0.200000
   # of expansion vecs  DIISMaxEq       ....     5
   Bias factor          DIISBfac        ....   1.050
   Max. coefficient     DIISMaxC        ....  10.000
 Newton-Raphson         CNVNR           .... off
 SOSCF                  CNVSOSCF        .... off
 Level Shifting         CNVShift        .... on
   Level shift para.    LevelShift      ....    0.2500
   Turn off err/grad.   ShiftErr        ....    0.0000
 Zerner damping         CNVZerner       .... off
 Static damping         CNVDamp         .... on
   Fraction old density DampFac         ....    0.8500
   Max. Damping (<1)    DampMax         ....    0.9800
   Min. Damping (>=0)   DampMin         ....    0.0000
   Turn off err/grad.   DampErr         ....    0.0300
 Fernandez-Rico         CNVRico         .... off

SCF Procedure:
 Maximum # iterations   MaxIter         ....  5000
 SCF integral mode      SCFMode         .... Direct
   Integral package                     .... LIBINT
 Reset frequeny         DirectResetFreq ....    20
 Integral Threshold     Thresh          ....  2.500e-11 Eh
 Primitive CutOff       TCut            ....  2.500e-12 Eh

Convergence Tolerance:
 Convergence Check Mode ConvCheckMode   .... Total+1el-Energy
 Convergence forced     ConvForced      .... 1
 Energy Change          TolE            ....  1.000e-08 Eh
 1-El. energy change                    ....  1.000e-05 Eh
 DIIS Error             TolErr          ....  5.000e-07


Diagonalization of the overlap matrix:
Smallest eigenvalue                        ... 3.973e-04
Time for diagonalization                   ...    0.030 sec
Threshold for overlap eigenvalues          ... 1.000e-08
Number of eigenvalues below threshold      ... 0
Time for construction of square roots      ...    0.019 sec
Total time needed                          ...    0.050 sec

--------------------
INITIAL GUESS: HCORE
--------------------
                      -----------------
                      INTIAL GUESS DONE 
                      -----------------
--------------
SCF ITERATIONS
--------------
ITER       Energy         Delta-E        Max-DP      RMS-DP      [F,P]     Damp
               ***  Starting incremental Fock matrix formation  ***
  0 -22466.7045685818   0.00000000000021.75329670  0.17947242 76.9822578 0.8500
  1 -24788.1771163836-2321.47254780176818.49075944  0.11738314 62.6412153 0.8500
                               ***Turning on DIIS***
  2 -26192.0090072794-1403.83189089586831.98579807  0.16632230 51.4373139 0.8500
  3 -29253.4870913160-3061.47808403654611.47746515  0.08533667 42.2468753 0.8500
  4 -29311.0691535464 -57.58206223040510.82500963  0.07230757 35.4606420 0.8500
  5 -29535.8119451994-224.742791653018 9.12254101  0.06181772 29.9503252 0.8500
  6 -29539.5093116803  -3.697366480930 8.12172621  0.05320304 25.3742034 0.8500
  7 -29528.2018947786  11.307416901724 7.05562572  0.04538878 21.4996274 0.8500
  8 -29825.8584741760-297.656579397371 5.73518313  0.03852331 18.1974258 0.8500
  9 -29823.3395361031   2.518938072873 5.02549607  0.03329589 15.4336120 0.8500
 10 -29988.3103600657-164.970823962576 4.10993143  0.02806645 13.0896125 0.8500
 11 -29938.3007778776  50.009582188060 3.66926037  0.02375649 11.1135537 0.8500
 12 -30079.1270621273-140.826284249673 2.96562195  0.02048185  9.4235611 0.8500
 13 -30093.4472878878 -14.320225760530 2.57427151  0.01734702  8.0013729 0.8500
 14 -30165.1046404088 -71.657352520982 2.11297275  0.01470303  6.7900447 0.8500
 15 -30222.0300120716 -56.925371662768 1.74188096  0.01265269  5.7632526 0.8500
 16 -30170.8322658841  51.197746187434 1.64101010  0.01078504  4.8901157 0.8500
 17 -30245.8805686033 -75.048302719126 1.30211039  0.00919068  4.1420096 0.8500
 18 -30270.0422721515 -24.161703548278 1.08413489  0.00786482  3.5136781 0.8500
 19 -30289.7914165506 -19.749144399040 0.91453729  0.00669453  2.9808684 0.8500
               *** Restarting incremental Fock matrix formation ***
                                   *** Resetting DIIS ***
 20 -30189.9720722535  99.819344297030 0.93275568  0.00585617  2.5285098 0.8500
 21 -30275.4687395112 -85.496667257612 0.67336751  0.00485998  2.0878166 0.8500
 22 -30307.4239677116 -31.955228200422 0.53007664  0.00415689  1.7451486 0.8500
 23 -30316.5678512910  -9.143883579385 0.45662728  0.00351278  1.4700988 0.8500
 24 -30325.0882045842  -8.520353293250 0.39307110  0.00297727  1.2443380 0.8500
 25 -30327.7010118216  -2.612807237376 0.34344738  0.00252931  1.0554223 0.8500
 26 -30337.8158871480 -10.114875326402 0.28738450  0.00215304  0.8950207 0.8500
 27 -30347.3426769966  -9.526789848580 0.23987023  0.00183585  0.7591318 0.8500
 28 -30352.9341146009  -5.591437604355 0.20509542  0.00156147  0.6439287 0.8500
 29 -30356.9387499448  -4.004635343914 0.17648767  0.00132617  0.5461922 0.8500
 30 -30360.6795991629  -3.740849218073 0.15086461  0.00112687  0.4632675 0.8500
 31 -30364.6776730880  -3.998073925097 0.12750495  0.00095839  0.3929136 0.8500
 32 -30368.1631082283  -3.485435140290 0.10779309  0.00081548  0.3332609 0.8500
 33 -30370.7961910805  -2.633082852168 0.09184071  0.00069346  0.2826696 0.8500
 34 -30372.8934336676  -2.097242587097 0.07850682  0.00058941  0.2397542 0.8500
 35 -30374.7731271380  -1.879693470481 0.06691067  0.00050107  0.2033495 0.8500
 36 -30376.5027691936  -1.729642055518 0.05681259  0.00042616  0.1724711 0.8500
 37 -30377.9905960225  -1.487826828947 0.04825486  0.00036253  0.1462841 0.8500
 38 -30379.2089212565  -1.218325234022 0.04110518  0.00030839  0.1240742 0.8500
 39 -30380.2247543331  -1.015833076577 0.03506527  0.00026232  0.1052357 0.8500
               *** Restarting incremental Fock matrix formation ***
                                   *** Resetting DIIS ***
 40 -30378.8499030814   1.374851251720 0.03309101  0.00022477  0.0892566 0.8500
 41 -30381.2241863371  -2.374283255718 0.02510018  0.00018914  0.0738989 0.8500
 42 -30382.4951727621  -1.270986424974 0.02025575  0.00016127  0.0618203 0.8500
 43 -30383.0171426435  -0.521969881454 0.01748799  0.00013706  0.0521505 0.8500
 44 -30383.4375583742  -0.420415730696 0.01518351  0.00011670  0.0441956 0.8500
 45 -30383.6927040242  -0.255145650004 0.01330823  0.00009959  0.0375174 0.8500
 46 -30384.1143504084  -0.421646384202 0.01130795  0.00008516  0.0318222 0.8500
 47 -30384.5117958717  -0.397445463252 0.06377163  0.00048627  0.0269897 0.0000
 48 -30386.4734156239  -1.961619752161 0.00336872  0.00003304  0.0034594 0.0000
 49 -30386.4790095986  -0.005593974776 0.00164853  0.00002829  0.0033659 0.0000
 50 -30386.5137233515  -0.034713752844 0.00328630  0.00003406  0.0036041 0.0000
 51 -30386.4289830014   0.084740350074 0.00259810  0.00004149  0.0034460 0.0000
 52 -30386.4722171482  -0.043234146822 0.00142274  0.00002130  0.0035007 0.0000
 53 -30386.4899347223  -0.017717574083 0.00060908  0.00000941  0.0035821 0.0000
 54 -30386.5019264273  -0.011991704960 0.00022629  0.00000206  0.0036584 0.0000
 55 -30386.5044173727  -0.002490945408 0.00029050  0.00000425  0.0037073 0.0000
 56 -30386.4764344425   0.027982930158 0.00056191  0.00000812  0.0037044 0.0000
 57 -30386.4668351031   0.009599339461 0.00089269  0.00001304  0.0036730 0.0000
 58 -30386.4744220499  -0.007586946896 0.00030608  0.00000484  0.0037144 0.0000
 59 -30386.4727063273   0.001715722690 0.00005271  0.00000067  0.0037534 0.0000
               *** Restarting incremental Fock matrix formation ***
                                   *** Resetting DIIS ***
 60 -30386.4721707533   0.000535573959 0.00113024  0.00001656  0.0037770 0.0000
 61 -30386.4781899262  -0.006019172870 0.00080960  0.00001235  0.0038193 0.0000
 62 -30386.4793081911  -0.001118264936 0.00007849  0.00000130  0.0038566 0.0000
 63 -30386.4864140227  -0.007105831566 0.00012693  0.00000187  0.0039054 0.0000
 64 -30386.4878392900  -0.001425267335 0.00003549  0.00000055  0.0039142 0.0000
 65 -30386.4750253105   0.012813979476 0.00098843  0.00001501  0.0039107 0.0000
 66 -30386.4671225433   0.007902767255 0.00039625  0.00000623  0.0039086 0.0000
 67 -30386.4654806389   0.001641904400 0.00014438  0.00000206  0.0039553 0.0000
 68 -30386.4613217059   0.004158932985 0.00027348  0.00000409  0.0039753 0.0000
 69 -30386.4681405026  -0.006818796715 0.00038786  0.00000586  0.0039787 0.0000
 70 -30386.4802964967  -0.012155994111 0.00066068  0.00000994  0.0040047 0.0000
 71 -30386.4990493700  -0.018752873293 0.00011849  0.00000211  0.0040485 0.0000
 72 -30386.5083650641  -0.009315694086 0.00020861  0.00000317  0.0040992 0.0000
 73 -30386.5015656276   0.006799436462 0.00032494  0.00000480  0.0041134 0.0000
 74 -30386.4802752141   0.021290413581 0.00046539  0.00000686  0.0041119 0.0000
 75 -30386.4563281737   0.023947040394 0.00064123  0.00000947  0.0041055 0.0000
 76 -30386.4426487491   0.013679424566 0.00025027  0.00000382  0.0041358 0.0000
 77 -30386.4384165338   0.004232215335 0.00020084  0.00000306  0.0041711 0.0000
 78 -30386.4512914832  -0.012874949407 0.00022103  0.00000347  0.0041890 0.0000
 79 -30386.4792909531  -0.027999469919 0.00057457  0.00000865  0.0042028 0.0000
               *** Restarting incremental Fock matrix formation ***
                                   *** Resetting DIIS ***
 80 -30386.4729146556   0.006376297511 0.00128168  0.00001873  0.0042618 0.0000
 81 -30386.4554297317   0.017484923868 0.00084333  0.00001270  0.0042694 0.0000
 82 -30386.4748624048  -0.019432673082 0.00008662  0.00000102  0.0043535 0.0000
 83 -30386.4658074024   0.009055002414 0.00000835  0.00000016  0.0043820 0.0000
 84 -30386.4639734223   0.001833980037 0.00000261  0.00000005  0.0043860 0.0000
 85 -30386.4690581776  -0.005084755267 0.00114708  0.00001644  0.0043860 0.0000
 86 -30386.4846210515  -0.015562873861 0.00026923  0.00000433  0.0044223 0.0000
 87 -30386.4969459095  -0.012324858009 0.00007824  0.00000085  0.0044910 0.0000
 88 -30386.5020471142  -0.005101204752 0.00036268  0.00000522  0.0045254 0.0000
 89 -30386.4913249393   0.010722174949 0.00037255  0.00000542  0.0045283 0.0000
 90 -30386.4702979948   0.021026944447 0.00082249  0.00001182  0.0045350 0.0000
 91 -30386.4463771323   0.023920862521 0.00029539  0.00000448  0.0045388 0.0000
 92 -30386.4352079559   0.011169176370 0.00027353  0.00000399  0.0045826 0.0000
 93 -30386.4405617164  -0.005353760513 0.00028927  0.00000421  0.0046055 0.0000
 94 -30386.4624960996  -0.021934383116 0.00041309  0.00000612  0.0046219 0.0000
 95 -30386.4920354581  -0.029539358537 0.00082726  0.00001178  0.0046682 0.0000
 96 -30386.5135206206  -0.021485162521 0.00039777  0.00000585  0.0047249 0.0000
 97 -30386.5212928075  -0.007772186895 0.00020048  0.00000295  0.0047810 0.0000
 98 -30386.5114353866   0.009857420911 0.00021718  0.00000325  0.0048050 0.0000
 99 -30386.4782542914   0.033181095201 0.00060249  0.00000875  0.0047999 0.0000
               *** Restarting incremental Fock matrix formation ***
                                   *** Resetting DIIS ***
100 -30386.4738871362   0.004367155238 0.00148883  0.00002096  0.0047772 0.0000
101 -30386.4903797665  -0.016492630351 0.00103719  0.00001467  0.0048757 0.0000
102 -30386.4753313159   0.015048450648 0.00010546  0.00000144  0.0049130 0.0000
103 -30386.4855413756  -0.010210059725 0.00011873  0.00000159  0.0049764 0.0000
104 -30386.4875860925  -0.002044716894 0.00003213  0.00000046  0.0049865 0.0000
105 -30386.4725042827   0.015081809808 0.00141138  0.00001933  0.0049839 0.0000
106 -30386.4565650085   0.015939274224 0.00051464  0.00000739  0.0049801 0.0000
107 -30386.4547158410   0.001849167475 0.00018771  0.00000249  0.0050484 0.0000
108 -30386.4516410390   0.003074801931 0.00041508  0.00000566  0.0050684 0.0000
109 -30386.4649819625  -0.013340923400 0.00054155  0.00000746  0.0050813 0.0000
110 -30386.4854163527  -0.020434390230 0.00101436  0.00001384  0.0051161 0.0000
111 -30386.5064031334  -0.020986780743 0.00023643  0.00000360  0.0051701 0.0000
112 -30386.5144019750  -0.007998841626 0.00021511  0.00000300  0.0052316 0.0000
113 -30386.5043529679   0.010049007145 0.00045718  0.00000627  0.0052517 0.0000
114 -30386.4763036174   0.028049350476 0.00070991  0.00000971  0.0052464 0.0000
115 -30386.4503249353   0.025978682152 0.00089985  0.00001216  0.0052450 0.0000
116 -30386.4368932326   0.013431702700 0.00030406  0.00000435  0.0052729 0.0000
117 -30386.4333339891   0.003559243451 0.00025776  0.00000357  0.0053083 0.0000
118 -30386.4528700450  -0.019536055879 0.00041984  0.00000588  0.0053361 0.0000
119 -30386.4866350294  -0.033764984379 0.00093384  0.00001255  0.0053776 0.0000
               *** Restarting incremental Fock matrix formation ***
                                   *** Resetting DIIS ***
120 -30386.4751958822   0.011439147169 0.00177768  0.00002377  0.0054312 0.0000
121 -30386.4569079663   0.018287915929 0.00126873  0.00001719  0.0054266 0.0000
122 -30386.4792334540  -0.022325487764 0.00017250  0.00000297  0.0055406 0.0000
123 -30386.4649658924   0.014267561637 0.00016596  0.00000210  0.0055864 0.0000
124 -30386.4626301368   0.002335755587 0.00004406  0.00000059  0.0055994 0.0000
125 -30386.4779694475  -0.015339310652 0.00163273  0.00002128  0.0055957 0.0000
126 -30386.4950748101  -0.017105362615 0.00073987  0.00000995  0.0056357 0.0000
127 -30386.4924918108   0.002582999281 0.00015991  0.00000210  0.0056944 0.0000
128 -30386.4957288146  -0.003237003744 0.00051412  0.00000665  0.0057466 0.0000
129 -30386.4844541284   0.011274686105 0.00058519  0.00000764  0.0057437 0.0000
130 -30386.4662342317   0.018219896792 0.00121995  0.00001576  0.0057525 0.0000
131 -30386.4526209658   0.013613265888 0.00040280  0.00000549  0.0057641 0.0000
132 -30386.4491310458   0.003489919931 0.00020955  0.00000284  0.0058163 0.0000
133 -30386.4571160614  -0.007985015553 0.00062431  0.00000809  0.0058420 0.0000
134 -30386.4797661904  -0.022650128973 0.00082660  0.00001070  0.0058677 0.0000
135 -30386.4989997427  -0.019233552357 0.00092374  0.00001190  0.0059089 0.0000
136 -30386.5088695186  -0.009869775884 0.00038357  0.00000512  0.0059522 0.0000
137 -30386.5072291303   0.001640388320 0.00036546  0.00000476  0.0059996 0.0000
138 -30386.4869832625   0.020245867818 0.00071239  0.00000920  0.0060137 0.0000
139 -30386.4614542997   0.025528962746 0.00103378  0.00001317  0.0060076 0.0000
               *** Restarting incremental Fock matrix formation ***
                                   *** Resetting DIIS ***
140 -30386.4769404980  -0.015486198321 0.00206191  0.00002623  0.0060247 0.0000
141 -30386.4904218922  -0.013481394170 0.00158021  0.00002022  0.0060975 0.0000
142 -30386.4730904519   0.017331440293 0.00043893  0.00000612  0.0061349 0.0000
143 -30386.4882152754  -0.015124823512 0.00026296  0.00000318  0.0062211 0.0000
144 -30386.4879333221   0.000281953322 0.00006631  0.00000085  0.0062520 0.0000
145 -30386.4744099590   0.013523363094 0.00185596  0.00002309  0.0062482 0.0000
146 -30386.4682728793   0.006137079730 0.00112392  0.00001433  0.0062204 0.0000
147 -30386.4774075391  -0.009134659846 0.00007159  0.00000113  0.0062969 0.0000
148 -30386.4713652893   0.006042249810 0.00034734  0.00000434  0.0063530 0.0000
149 -30386.4756042531  -0.004238963764 0.00082870  0.00001030  0.0063605 0.0000
150 -30386.4841961652  -0.008591912101 0.00134029  0.00001663  0.0063722 0.0000
151 -30386.4873002779  -0.003104112693 0.00067364  0.00000859  0.0063942 0.0000
152 -30386.4847521671   0.002548110748 0.00026469  0.00000348  0.0064434 0.0000
153 -30386.4829239516   0.001828215503 0.00071958  0.00000890  0.0064805 0.0000
154 -30386.4765468121   0.006377139482 0.00104014  0.00001286  0.0064846 0.0000
155 -30386.4723659577   0.004180854456 0.00099661  0.00001238  0.0064967 0.0000
156 -30386.4732082552  -0.000842297490 0.00058259  0.00000736  0.0065263 0.0000
157 -30386.4764837112  -0.003275456023 0.00057007  0.00000711  0.0065679 0.0000
158 -30386.4807845772  -0.004300866040 0.00089076  0.00001097  0.0065929 0.0000
159 -30386.4851236196  -0.004339042371 0.00100264  0.00001236  0.0066085 0.0000
               *** Restarting incremental Fock matrix formation ***
                                   *** Resetting DIIS ***
160 -30386.4792359694   0.005887650201 0.00233209  0.00002853  0.0066311 0.0000
161 -30386.4780135768   0.001222392628 0.00201404  0.00002477  0.0066316 0.0000
162 -30386.4828838984  -0.004870321594 0.00085808  0.00001086  0.0066842 0.0000
163 -30386.4776948172   0.005189081141 0.00022006  0.00000261  0.0067529 0.0000
164 -30386.4786870359  -0.000992218665 0.00004766  0.00000058  0.0068075 0.0000
165 -30386.4812614060  -0.002574370053 0.00186603  0.00002257  0.0068089 0.0000
166 -30386.4827782048  -0.001516798875 0.00159341  0.00001958  0.0067750 0.0000
167 -30386.4809062836   0.001871921209 0.00059864  0.00000766  0.0068092 0.0000
168 -30386.4843619188  -0.003455635211 0.00022035  0.00000289  0.0068767 0.0000
169 -30386.4819909362   0.002370982635 0.00078842  0.00000959  0.0069098 0.0000
170 -30386.4800427398   0.001948196375 0.00145361  0.00001766  0.0069061 0.0000
171 -30386.4813132405  -0.001270500718 0.00131140  0.00001608  0.0069005 0.0000
172 -30386.4827833396  -0.001470099040 0.00073694  0.00000919  0.0069286 0.0000
173 -30386.4820165979   0.000766741632 0.00060649  0.00000750  0.0069716 0.0000
174 -30386.4829070303  -0.000890432399 0.00098777  0.00001204  0.0069963 0.0000
175 -30386.4829676244  -0.000060594066 0.00129231  0.00001576  0.0069992 0.0000
176 -30386.4828289961   0.000138628347 0.00120286  0.00001476  0.0070040 0.0000
177 -30386.4832261556  -0.000397159536 0.00092397  0.00001141  0.0070249 0.0000
178 -30386.4834673722  -0.000241216596 0.00085987  0.00001059  0.0070543 0.0000
179 -30386.4830366465   0.000430725733 0.00106170  0.00001300  0.0070735 0.0000
               *** Restarting incremental Fock matrix formation ***
                                   *** Resetting DIIS ***
180 -30386.4823856154   0.000651031030 0.00249935  0.00003046  0.0070809 0.0000
181 -30386.4830154936  -0.000629878195 0.00232489  0.00002856  0.0070516 0.0000
182 -30386.4838434682  -0.000827974549 0.00161016  0.00002002  0.0070605 0.0000
183 -30386.4855384000  -0.001694931831 0.00049337  0.00000646  0.0071040 0.0000
184 -30386.4855287852   0.000009614785 0.00029454  0.00000351  0.0071662 0.0000
185 -30386.4837948749   0.001733910311 0.00163474  0.00001995  0.0072106 0.0000
186 -30386.4844284170  -0.000633542080 0.00192547  0.00002379  0.0071510 0.0000
187 -30386.4849997765  -0.000571359484 0.00168660  0.00002103  0.0071395 0.0000
188 -30386.4859518496  -0.000952073086 0.00115946  0.00001462  0.0071554 0.0000
189 -30386.4864558316  -0.000503982075 0.00082169  0.00001040  0.0071888 0.0000
190 -30386.4860309597   0.000424871927 0.00108050  0.00001351  0.0072150 0.0000
191 -30386.4858421574   0.000188802289 0.00153361  0.00001919  0.0072117 0.0000
192 -30386.4860219966  -0.000179839197 0.00171696  0.00002161  0.0071955 0.0000
193 -30386.4864051452  -0.000383148610 0.00165114  0.00002093  0.0071855 0.0000
194 -30386.4869207615  -0.000515616273 0.00149579  0.00001908  0.0071861 0.0000
195 -30386.4872320921  -0.000311330601 0.00142236  0.00001821  0.0071923 0.0000
196 -30386.4873651304  -0.000133038269 0.00150932  0.00001937  0.0071952 0.0000
197 -30386.4874219435  -0.000056813147 0.00168756  0.00002173  0.0071889 0.0000
198 -30386.4875030135  -0.000081070000 0.00187065  0.00002408  0.0071743 0.0000
199 -30386.4876285750  -0.000125561488 0.00202217  0.00002604  0.0071551 0.0000
               *** Restarting incremental Fock matrix formation ***
                                   *** Resetting DIIS ***
200 -30386.4873929640   0.000235610973 0.00242992  0.00003126  0.0071330 0.0000
201 -30386.4877800005  -0.000387036482 0.00244123  0.00003148  0.0070937 0.0000
202 -30386.4880764731  -0.000296472568 0.00251460  0.00003250  0.0070629 0.0000
203 -30386.4880309989   0.000045474208 0.00279362  0.00003616  0.0070304 0.0000
204 -30386.4871782468   0.000852752106 0.00361575  0.00004687  0.0069828 0.0000
205 -30386.4856152698   0.001562976999 0.00463161  0.00006031  0.0068914 0.0000
206 -30386.4841421748   0.001473094970 0.00596148  0.00007827  0.0067529 0.0000
207 -30386.4810888559   0.003053318916 0.00701011  0.00009347  0.0065508 0.0000
208 -30386.4819024960  -0.000813640137 0.00837826  0.00011416  0.0063313 0.0000
209 -30386.4747094181   0.007193077887 0.00833093  0.00011760  0.0062156 0.0000
210 -30386.4887773104  -0.014067892283 0.01382386  0.00018582  0.0060715 0.0000
211 -30386.5375658825  -0.048788572043 0.00127916  0.00002217  0.0061960 0.0000
212 -30386.4031202907   0.134445591750 0.02174328  0.00026899  0.0056656 0.0000
213 -30386.5822328530  -0.179112562284 0.00957171  0.00011231  0.0060295 0.0000
214 -30386.4943820788   0.087850774162 0.02256979  0.00025220  0.0053534 0.0000
215 -30386.5162413081  -0.021859229219 0.00921393  0.00010477  0.0049710 0.0000
216 -30386.4849894473   0.031251860783 0.03578647  0.00039687  0.0042355 0.0000
217 -30386.5309542912  -0.045964843899 0.00176777  0.00002822  0.0040121 0.0000
218 -30386.4765315534   0.054422737761 0.00063038  0.00001498  0.0036257 0.0000
219 -30386.4768573251  -0.000325771682 0.01591013  0.00018588  0.0030441 0.0000
               *** Restarting incremental Fock matrix formation ***
                                   *** Resetting DIIS ***
220 -30386.5090863905  -0.032229065368 0.00104854  0.00001979  0.0026846 0.0000
221 -30386.4930070341   0.016079356312 0.00192207  0.00001948  0.0020918 0.0000
222 -30386.5792347890  -0.086227754815 0.00093098  0.00001367  0.0021272 0.0000
223 -30386.4966099709   0.082624818013 0.00124033  0.00001885  0.0021185 0.0000
224 -30386.5097758156  -0.013165844663 0.00185472  0.00002751  0.0020634 0.0000
225 -30386.5093022744   0.000473541255 0.00249050  0.00003579  0.0019367 0.0000
226 -30386.5158975976  -0.006595323215 0.00275049  0.00003927  0.0017790 0.0000
227 -30386.5112181806   0.004679416932 0.00298639  0.00004169  0.0016895 0.0000
228 -30386.5065322508   0.004685929816 0.00351875  0.00004904  0.0015899 0.0000
229 -30386.5147376387  -0.008205387905 0.00387722  0.00005244  0.0014818 0.0000
230 -30386.5162608745  -0.001523235806 0.00342789  0.00004717  0.0013554 0.0000
231 -30386.4984571655   0.017803709074 0.00556936  0.00007297  0.0012129 0.0000
232 -30386.5301146927  -0.031657527277 0.00263875  0.00003576  0.0010887 0.0000
233 -30386.5120766438   0.018038048900 0.00713484  0.00009179  0.0008599 0.0000
234 -30386.5225939981  -0.010517354276 0.00071013  0.00001138  0.0008444 0.0000
235 -30386.5152278944   0.007366103677 0.00340265  0.00004387  0.0007161 0.0000
236 -30386.5120401049   0.003187789534 0.00195984  0.00002586  0.0006327 0.0000
237 -30386.5155161079  -0.003476003047 0.00087307  0.00001244  0.0005262 0.0000
238 -30386.5101048672   0.005411240705 0.00098457  0.00001334  0.0004142 0.0000
239 -30386.5060785563   0.004026310933 0.00032230  0.00000419  0.0003451 0.0000
               *** Restarting incremental Fock matrix formation ***
                                   *** Resetting DIIS ***
240 -30386.5106335309  -0.004554974588 0.00012107  0.00000157  0.0002770 0.0000
241 -30386.5068394325   0.003794098444 0.00008117  0.00000117  0.0002590 0.0000
242 -30386.5126688398  -0.005829407321 0.00024906  0.00000261  0.0002472 0.0000
243 -30386.5119718166   0.000697023152 0.00050632  0.00000521  0.0002096 0.0000
244 -30386.5129268849  -0.000955068317 0.00027414  0.00000275  0.0001336 0.0000
245 -30386.5111061351   0.001820749843 0.00028222  0.00000281  0.0000930 0.0000
246 -30386.5117978293  -0.000691694204 0.00017329  0.00000171  0.0000702 0.0000
247 -30386.5111275813   0.000670248002 0.00010422  0.00000104  0.0000505 0.0000
248 -30386.5104297284   0.000697852880 0.00006080  0.00000067  0.0000397 0.0000
249 -30386.5111405681  -0.000710839715 0.00003992  0.00000053  0.0000289 0.0000
250 -30386.5105356904   0.000604877707 0.00005076  0.00000059  0.0000234 0.0000
251 -30386.5106671778  -0.000131487392 0.00005450  0.00000060  0.0000200 0.0000
252 -30386.5106674160  -0.000000238171 0.00004586  0.00000050  0.0000177 0.0000
253 -30386.5106118464   0.000055569581 0.00004066  0.00000043  0.0000154 0.0000
254 -30386.5106840574  -0.000072210994 0.00003872  0.00000042  0.0000131 0.0000
255 -30386.5106170835   0.000066973906 0.00003597  0.00000041  0.0000125 0.0000
256 -30386.5107039060  -0.000086822514 0.00002768  0.00000033  0.0000113 0.0000
257 -30386.5106473034   0.000056602610 0.00001912  0.00000026  0.0000098 0.0000
258 -30386.5105434772   0.000103826227 0.00001410  0.00000021  0.0000085 0.0000
259 -30386.5107148503  -0.000171373165 0.00001290  0.00000019  0.0000070 0.0000
               *** Restarting incremental Fock matrix formation ***
                                   *** Resetting DIIS ***
260 -30386.5106380064   0.000076843990 0.00000271  0.00000004  0.0000057 0.0000
261 -30386.5106464606  -0.000008454295 0.00000165  0.00000003  0.0000051 0.0000
262 -30386.5106140095   0.000032451138 0.00000195  0.00000003  0.0000050 0.0000
263 -30386.5106424150  -0.000028405448 0.00000239  0.00000004  0.0000049 0.0000
264 -30386.5106298563   0.000012558648 0.00000348  0.00000005  0.0000047 0.0000
265 -30386.5106528547  -0.000022998360 0.00000661  0.00000010  0.0000043 0.0000
266 -30386.5106033825   0.000049472212 0.00000654  0.00000009  0.0000039 0.0000
267 -30386.5105914903   0.000011892113 0.00000634  0.00000008  0.0000036 0.0000
268 -30386.5106621539  -0.000070663529 0.00000756  0.00000010  0.0000032 0.0000
269 -30386.5106220110   0.000040142910 0.00000657  0.00000008  0.0000029 0.0000
270 -30386.5106279243  -0.000005913302 0.00000858  0.00000010  0.0000026 0.0000
271 -30386.5106363298  -0.000008405521 0.00001115  0.00000013  0.0000024 0.0000
272 -30386.5106320368   0.000004292950 0.00000650  0.00000007  0.0000025 0.0000
273 -30386.5106429352  -0.000010898362 0.00000776  0.00000008  0.0000023 0.0000
274 -30386.5106235640   0.000019371182 0.00001160  0.00000012  0.0000021 0.0000
275 -30386.5105904696   0.000033094428 0.00000650  0.00000007  0.0000019 0.0000
276 -30386.5106230671  -0.000032597538 0.00000583  0.00000006  0.0000016 0.0000
277 -30386.5106247354  -0.000001668282 0.00000566  0.00000006  0.0000016 0.0000
278 -30386.5106138888   0.000010846565 0.00000257  0.00000003  0.0000015 0.0000
279 -30386.5106375441  -0.000023655262 0.00000404  0.00000005  0.0000015 0.0000
               *** Restarting incremental Fock matrix formation ***
                                   *** Resetting DIIS ***
280 -30386.5106380131  -0.000000469016 0.00000468  0.00000003  0.0000013 0.0000
281 -30386.5106303914   0.000007621747 0.00000042  0.00000001  0.0000013 0.0000
282 -30386.5106495706  -0.000019179206 0.00000333  0.00000002  0.0000012 0.0000
283 -30386.5106388086   0.000010761993 0.00000192  0.00000001  0.0000012 0.0000
284 -30386.5106367823   0.000002026296 0.00000275  0.00000002  0.0000011 0.0000
                            ***DIIS convergence achieved***

               *****************************************************
               *                     SUCCESS                       *
               *           SCF CONVERGED AFTER 285 CYCLES          *
               *****************************************************


----------------
TOTAL SCF ENERGY
----------------

Total Energy       :       -30386.51064115 Eh         -826858.99124 eV

Components:
Nuclear Repulsion  :         1700.74817998 Eh           46279.71079 eV
Electronic Energy  :       -32087.25882113 Eh         -873138.70204 eV
One Electron Energy:       -44615.88248749 Eh        -1214059.88410 eV
Two Electron Energy:        12528.62366636 Eh          340921.18206 eV

Virial components:
Potential Energy   :       -88351.36143084 Eh        -2404162.76981 eV
Kinetic Energy     :        57964.85078969 Eh         1577303.77856 eV
Virial Ratio       :            1.52422305


---------------
SCF CONVERGENCE
---------------

  Last Energy change         ...   -4.3701e-06  Tolerance :   1.0000e-08
  Last MAX-Density change    ...    2.4875e-06  Tolerance :   1.0000e-07
  Last RMS-Density change    ...    2.7403e-08  Tolerance :   5.0000e-09
  Last DIIS Error            ...    8.8595e-07  Tolerance :   5.0000e-07

             **** THE GBW FILE WAS UPDATED (/home/nikolayandreadi_2125/_scratch/MP2/PuO2_SO4.gbw) ****
             **** DENSITY FILE WAS UPDATED (/home/nikolayandreadi_2125/_scratch/MP2/PuO2_SO4.scfp.tmp) ****
             **** ENERGY FILE WAS UPDATED (/home/nikolayandreadi_2125/_scratch/MP2/PuO2_SO4.en.tmp) ****
----------------
ORBITAL ENERGIES
----------------

  NO   OCC          E(Eh)            E(eV) 
   0   2.0000   -4488.843788   -122147.6493 
   1   2.0000    -854.542593    -23253.2861 
   2   2.0000    -712.223291    -19380.5810 
   3   2.0000    -712.222954    -19380.5719 
   4   2.0000    -712.222656    -19380.5638 
   5   2.0000    -220.921093     -6011.5686 
   6   2.0000    -180.877443     -4921.9255 
   7   2.0000    -180.869437     -4921.7076 
   8   2.0000    -180.868265     -4921.6757 
   9   2.0000    -144.142068     -3922.3051 
  10   2.0000    -144.141606     -3922.2925 
  11   2.0000    -144.138279     -3922.2020 
  12   2.0000    -144.137578     -3922.1829 
  13   2.0000    -144.133630     -3922.0755 
  14   2.0000     -92.549334     -2518.3954 
  15   2.0000     -59.064820     -1607.2355 
  16   2.0000     -45.703091     -1243.6443 
  17   2.0000     -45.688292     -1243.2416 
  18   2.0000     -45.686019     -1243.1798 
  19   2.0000     -31.619968      -860.4231 
  20   2.0000     -31.610757      -860.1724 
  21   2.0000     -31.608864      -860.1209 
  22   2.0000     -31.604967      -860.0149 
  23   2.0000     -31.600454      -859.8921 
  24   2.0000     -20.662753      -562.2621 
  25   2.0000     -20.661528      -562.2288 
  26   2.0000     -20.656618      -562.0951 
  27   2.0000     -20.653618      -562.0135 
  28   2.0000     -20.605951      -560.7164 
  29   2.0000     -20.605106      -560.6934 
  30   2.0000     -17.187021      -467.6826 
  31   2.0000     -17.165197      -467.0888 
  32   2.0000     -17.163874      -467.0527 
  33   2.0000     -17.158203      -466.8984 
  34   2.0000     -17.143745      -466.5050 
  35   2.0000     -17.143206      -466.4903 
  36   2.0000     -17.142216      -466.4634 
  37   2.0000     -14.085777      -383.2935 
  38   2.0000      -9.769562      -265.8433 
  39   2.0000      -9.761115      -265.6135 
  40   2.0000      -9.759119      -265.5591 
  41   2.0000      -9.271309      -252.2851 
  42   2.0000      -6.908302      -187.9844 
  43   2.0000      -6.907341      -187.9583 
  44   2.0000      -6.906130      -187.9254 
  45   2.0000      -4.894705      -133.1917 
  46   2.0000      -4.888026      -133.0099 
  47   2.0000      -4.886339      -132.9640 
  48   2.0000      -4.878544      -132.7519 
  49   2.0000      -4.856220      -132.1445 
  50   2.0000      -2.506362       -68.2016 
  51   2.0000      -1.581204       -43.0268 
  52   2.0000      -1.568646       -42.6850 
  53   2.0000      -1.497412       -40.7467 
  54   2.0000      -1.385223       -37.6938 
  55   2.0000      -1.381771       -37.5999 
  56   2.0000      -1.376232       -37.4492 
  57   2.0000      -1.311810       -35.6962 
  58   2.0000      -1.128589       -30.7105 
  59   2.0000      -1.104720       -30.0610 
  60   2.0000      -0.877913       -23.8892 
  61   2.0000      -0.757489       -20.6123 
  62   2.0000      -0.733023       -19.9466 
  63   2.0000      -0.713416       -19.4130 
  64   2.0000      -0.654091       -17.7987 
  65   2.0000      -0.630539       -17.1578 
  66   2.0000      -0.620159       -16.8754 
  67   2.0000      -0.618125       -16.8200 
  68   2.0000      -0.616492       -16.7756 
  69   2.0000      -0.604447       -16.4478 
  70   2.0000      -0.593316       -16.1450 
  71   2.0000      -0.585885       -15.9428 
  72   2.0000      -0.573893       -15.6164 
  73   2.0000      -0.563276       -15.3275 
  74   2.0000      -0.542314       -14.7571 
  75   2.0000      -0.534436       -14.5427 
  76   2.0000      -0.510526       -13.8921 
  77   2.0000      -0.503577       -13.7030 
  78   2.0000      -0.499922       -13.6036 
  79   0.0000      -0.023920        -0.6509 
  80   0.0000       0.022254         0.6056 
  81   0.0000       0.027338         0.7439 
  82   0.0000       0.032027         0.8715 
  83   0.0000       0.037686         1.0255 
  84   0.0000       0.062343         1.6964 
  85   0.0000       0.065873         1.7925 
  86   0.0000       0.076567         2.0835 
  87   0.0000       0.086951         2.3660 
  88   0.0000       0.127789         3.4773 
  89   0.0000       0.133538         3.6338 
  90   0.0000       0.134733         3.6663 
  91   0.0000       0.139945         3.8081 
  92   0.0000       0.146793         3.9945 
  93   0.0000       0.164169         4.4673 
  94   0.0000       0.167954         4.5703 
  95   0.0000       0.180058         4.8996 
  96   0.0000       0.184163         5.0113 
  97   0.0000       0.194514         5.2930 
  98   0.0000       0.240745         6.5510 
  99   0.0000       0.243996         6.6395 
 100   0.0000       0.273572         7.4443 
 101   0.0000       0.308592         8.3972 
 102   0.0000       0.310662         8.4535 
 103   0.0000       0.376617        10.2483 
 104   0.0000       0.379867        10.3367 
 105   0.0000       0.390576        10.6281 
 106   0.0000       0.404484        11.0066 
 107   0.0000       0.426256        11.5990 
 108   0.0000       0.444955        12.1079 
 109   0.0000       0.452627        12.3166 
 110   0.0000       0.477882        13.0038 
 111   0.0000       0.511247        13.9117 
 112   0.0000       0.526581        14.3290 
 113   0.0000       0.551816        15.0157 
 114   0.0000       0.558634        15.2012 
 115   0.0000       0.566082        15.4039 
 116   0.0000       0.573868        15.6157 
 117   0.0000       0.585752        15.9391 
 118   0.0000       0.588665        16.0184 
 119   0.0000       0.606178        16.4949 
 120   0.0000       0.607569        16.5328 
 121   0.0000       0.629503        17.1297 
 122   0.0000       0.634914        17.2769 
 123   0.0000       0.640297        17.4234 
 124   0.0000       0.651439        17.7265 
 125   0.0000       0.656221        17.8567 
 126   0.0000       0.659407        17.9434 
 127   0.0000       0.668494        18.1907 
 128   0.0000       0.687397        18.7050 
 129   0.0000       0.722958        19.6727 
 130   0.0000       0.730215        19.8702 
 131   0.0000       0.739950        20.1351 
 132   0.0000       0.747148        20.3309 
 133   0.0000       0.750020        20.4091 
 134   0.0000       0.757337        20.6082 
 135   0.0000       0.770866        20.9763 
 136   0.0000       0.794231        21.6121 
 137   0.0000       0.812416        22.1070 
 138   0.0000       0.842644        22.9295 
 139   0.0000       0.854386        23.2490 
 140   0.0000       0.902786        24.5661 
 141   0.0000       0.910419        24.7738 
 142   0.0000       0.927839        25.2478 
 143   0.0000       0.933402        25.3992 
 144   0.0000       0.945822        25.7371 
 145   0.0000       0.976323        26.5671 
 146   0.0000       1.076723        29.2991 
 147   0.0000       1.114336        30.3226 
 148   0.0000       1.118298        30.4304 
 149   0.0000       1.148325        31.2475 
 150   0.0000       1.178685        32.0736 
 151   0.0000       1.221657        33.2430 
 152   0.0000       1.224879        33.3307 
 153   0.0000       1.310519        35.6610 
 154   0.0000       1.314294        35.7638 
 155   0.0000       1.376976        37.4694 
 156   0.0000       1.388037        37.7704 
 157   0.0000       1.399411        38.0799 
 158   0.0000       1.418466        38.5984 
 159   0.0000       1.536763        41.8174 
 160   0.0000       1.539913        41.9032 
 161   0.0000       1.561256        42.4839 
 162   0.0000       1.564513        42.5726 
 163   0.0000       1.594809        43.3970 
 164   0.0000       1.639518        44.6136 
 165   0.0000       1.657363        45.0991 
 166   0.0000       1.687019        45.9061 
 167   0.0000       1.729678        47.0669 
 168   0.0000       1.730364        47.0856 
 169   0.0000       1.748733        47.5854 
 170   0.0000       1.792431        48.7745 
 171   0.0000       1.803571        49.0777 
 172   0.0000       1.808846        49.2212 
 173   0.0000       1.824051        49.6350 
 174   0.0000       1.852554        50.4105 
 175   0.0000       1.863966        50.7211 
 176   0.0000       1.895006        51.5657 
 177   0.0000       1.901954        51.7548 
 178   0.0000       1.928909        52.4883 
 179   0.0000       1.936594        52.6974 
 180   0.0000       1.960807        53.3563 
 181   0.0000       2.017535        54.8999 
 182   0.0000       2.039320        55.4927 
 183   0.0000       2.048706        55.7481 
 184   0.0000       2.074475        56.4493 
 185   0.0000       2.078640        56.5627 
 186   0.0000       2.156196        58.6731 
 187   0.0000       2.188300        59.5467 
 188   0.0000       2.199344        59.8472 
 189   0.0000       2.217840        60.3505 
 190   0.0000       2.225531        60.5598 
 191   0.0000       2.285946        62.2038 
 192   0.0000       2.297472        62.5174 
 193   0.0000       2.325491        63.2798 
 194   0.0000       2.329698        63.3943 
 195   0.0000       2.353014        64.0288 
 196   0.0000       2.361770        64.2670 
 197   0.0000       2.408280        65.5326 
 198   0.0000       2.413440        65.6730 
 199   0.0000       2.459216        66.9187 
 200   0.0000       2.465738        67.0961 
 201   0.0000       2.487043        67.6759 
 202   0.0000       2.557494        69.5930 
 203   0.0000       2.569851        69.9292 
 204   0.0000       2.606715        70.9323 
 205   0.0000       2.621442        71.3331 
 206   0.0000       2.622729        71.3681 
 207   0.0000       2.666519        72.5597 
 208   0.0000       2.725286        74.1588 
 209   0.0000       2.731893        74.3386 
 210   0.0000       2.735501        74.4368 
 211   0.0000       2.816877        76.6511 
 212   0.0000       2.822463        76.8031 
 213   0.0000       2.833245        77.0965 
 214   0.0000       2.869555        78.0846 
 215   0.0000       3.067353        83.4669 
 216   0.0000       3.080780        83.8323 
 217   0.0000       3.108778        84.5941 
 218   0.0000       3.177242        86.4571 
 219   0.0000       3.202861        87.1543 
 220   0.0000       3.210472        87.3614 
 221   0.0000       3.273372        89.0730 
 222   0.0000       3.293121        89.6104 
 223   0.0000       3.333117        90.6987 
 224   0.0000       3.365207        91.5720 
 225   0.0000       3.390810        92.2686 
 226   0.0000       3.409991        92.7906 
 227   0.0000       3.426096        93.2288 
 228   0.0000       3.458095        94.0995 
 229   0.0000       3.473822        94.5275 
 230   0.0000       3.485493        94.8451 
 231   0.0000       3.584778        97.5468 
 232   0.0000       3.636402        98.9515 
 233   0.0000       3.804205       103.5177 
 234   0.0000       3.937989       107.1581 
 235   0.0000       4.013277       109.2068 
 236   0.0000       4.133152       112.4688 
 237   0.0000       4.148788       112.8943 
 238   0.0000       4.191073       114.0449 
 239   0.0000       4.232111       115.1616 
 240   0.0000       4.280756       116.4853 
 241   0.0000       4.353705       118.4703 
 242   0.0000       4.394401       119.5777 
 243   0.0000       4.495545       122.3300 
 244   0.0000       4.499381       122.4344 
 245   0.0000       4.562362       124.1482 
 246   0.0000       5.334077       145.1476 
 247   0.0000       5.448113       148.2507 
 248   0.0000       5.475062       148.9840 
 249   0.0000       5.481418       149.1570 
 250   0.0000       5.483809       149.2220 
 251   0.0000       5.487202       149.3144 
 252   0.0000       5.497488       149.5943 
 253   0.0000       5.499763       149.6562 
 254   0.0000       5.505864       149.8222 
 255   0.0000       5.507378       149.8634 
 256   0.0000       5.523435       150.3003 
 257   0.0000       5.529399       150.4626 
 258   0.0000       5.551620       151.0673 
 259   0.0000       5.553114       151.1079 
 260   0.0000       5.554386       151.1425 
 261   0.0000       5.560835       151.3180 
 262   0.0000       5.563718       151.3965 
 263   0.0000       5.566065       151.4603 
 264   0.0000       5.577322       151.7666 
 265   0.0000       5.594847       152.2435 
 266   0.0000       5.595719       152.2672 
 267   0.0000       5.597878       152.3260 
 268   0.0000       5.609777       152.6498 
 269   0.0000       5.622593       152.9985 
 270   0.0000       5.629902       153.1974 
 271   0.0000       5.635061       153.3378 
 272   0.0000       5.675317       154.4332 
 273   0.0000       5.683909       154.6670 
 274   0.0000       5.697677       155.0417 
 275   0.0000       5.718947       155.6204 
 276   0.0000       5.727611       155.8562 
 277   0.0000       5.739688       156.1848 
 278   0.0000       5.769344       156.9918 
 279   0.0000       5.842958       158.9950 
 280   0.0000       5.874645       159.8572 
 281   0.0000       5.888765       160.2414 
 282   0.0000       6.052778       164.7045 
 283   0.0000       6.056869       164.8158 
 284   0.0000       6.075374       165.3193 
 285   0.0000       6.123643       166.6328 
 286   0.0000       6.162952       167.7024 
 287   0.0000       6.320107       171.9789 
 288   0.0000       6.659027       181.2013 
 289   0.0000       6.739211       183.3832 
 290   0.0000       6.757628       183.8844 
 291   0.0000       6.764072       184.0597 
 292   0.0000       6.766216       184.1181 
 293   0.0000       6.773772       184.3237 
 294   0.0000       6.786226       184.6626 
 295   0.0000       6.799206       185.0158 
 296   0.0000       6.822844       185.6590 
 297   0.0000       6.865009       186.8064 
 298   0.0000       6.869390       186.9256 
 299   0.0000       6.951827       189.1688 
 300   0.0000       6.987769       190.1469 
 301   0.0000       6.994403       190.3274 
 302   0.0000       7.029149       191.2729 
 303   0.0000       7.084884       192.7895 
 304   0.0000       7.093429       193.0220 
 305   0.0000       7.096352       193.1016 
 306   0.0000       7.157595       194.7681 
 307   0.0000       7.174205       195.2201 
 308   0.0000       7.192758       195.7249 
 309   0.0000       7.259730       197.5473 
 310   0.0000       7.290188       198.3761 
 311   0.0000       7.316508       199.0923 
 312   0.0000       7.337961       199.6761 
 313   0.0000       7.344350       199.8499 
 314   0.0000       7.403649       201.4635 
 315   0.0000       7.444543       202.5763 
 316   0.0000       7.462810       203.0734 
 317   0.0000       7.466541       203.1749 
 318   0.0000       7.617338       207.2783 
 319   0.0000       8.119040       220.9303 
 320   0.0000       8.798570       239.4213 
 321   0.0000       8.872701       241.4385 
 322   0.0000       9.265761       252.1342 
 323   0.0000       9.290820       252.8161 
 324   0.0000       9.460485       257.4329 
 325   0.0000       9.478346       257.9189 
 326   0.0000       9.930244       270.2157 
 327   0.0000      10.004697       272.2416 
 328   0.0000      14.509318       394.8186 
 329   0.0000      14.550793       395.9472 
 330   0.0000      14.562149       396.2562 
 331   0.0000      14.599044       397.2602 
 332   0.0000      14.603356       397.3775 
 333   0.0000      14.799534       402.7158 
 334   0.0000      14.884598       405.0305 
 335   0.0000      15.241326       414.7376 
 336   0.0000      15.338562       417.3835 
 337   0.0000      15.436846       420.0579 
 338   0.0000      15.451692       420.4619 
 339   0.0000      15.471294       420.9953 
 340   0.0000      15.544087       422.9761 
 341   0.0000      20.113608       547.3191 
 342   0.0000      44.523396      1211.5432 
 343   0.0000      48.014430      1306.5391 
 344   0.0000      48.211708      1311.9073 
 345   0.0000      48.225808      1312.2910 
 346   0.0000      48.287003      1313.9561 
 347   0.0000      48.313405      1314.6746 
 348   0.0000      48.406084      1317.1965 
 349   0.0000      48.532561      1320.6381 
 350   0.0000      48.544014      1320.9498 
 351   0.0000      57.258316      1558.0780 
 352   0.0000      57.277197      1558.5918 
 353   0.0000      57.286403      1558.8423 
 354   0.0000      57.305842      1559.3712 
 355   0.0000      57.307969      1559.4291 
 356   0.0000      57.415193      1562.3468 
 357   0.0000      57.439125      1562.9981 
 358   0.0000      78.857419      2145.8195 
 359   0.0000      78.952254      2148.4001 
 360   0.0000      79.053459      2151.1540 
 361   0.0000      79.083802      2151.9797 
 362   0.0000      79.093782      2152.2512 
 363   0.0000      79.167085      2154.2459 
 364   0.0000     122.331256      3328.8027 
 365   0.0000     208.666570      5678.1060 
 366   0.0000     246.217927      6699.9304 
 367   0.0000     246.224517      6700.1097 
 368   0.0000     246.270056      6701.3489 
 369   0.0000     246.283189      6701.7063 
 370   0.0000     246.397962      6704.8294 
 371   0.0000     272.098785      7404.1844 
 372   0.0000     272.362405      7411.3578 
 373   0.0000     272.422615      7412.9962 
 374   0.0000     785.473876     21373.8308 
 375   0.0000     811.168335     22073.0126 
 376   0.0000    1122.352174     30540.7553 
 377   0.0000    1122.527666     30545.5307 
 378   0.0000    1122.568738     30546.6483 
 379   0.0000    2491.294591     67791.5723 
 380   0.0000    3900.110915    106127.4134 
 381   0.0000    3900.230226    106130.6600 
 382   0.0000    3900.258097    106131.4184 
 383   0.0000    6238.707124    169763.8515 
 384   0.0000   13300.759825    361932.0751 
 385   0.0000   25383.987004    690733.4026 
 386   0.0000   44711.657035   1216666.0420 
 387   0.0000   85164.034032   2317431.1819 

                    ********************************
                    * MULLIKEN POPULATION ANALYSIS *
                    ********************************

-----------------------
MULLIKEN ATOMIC CHARGES
-----------------------
   0 O :   -0.603681
   1 Pu:    2.277442
   2 O :   -0.613355
   3 O :   -0.639100
   4 S :    1.391102
   5 O :   -0.650468
   6 O :   -0.581735
   7 O :   -0.580206
Sum of atomic charges:   -0.0000000

--------------------------------
MULLIKEN REDUCED ORBITAL CHARGES
--------------------------------
  0 O s       :     4.035910  s :     4.035910
      pz      :     1.642817  p :     4.523786
      px      :     1.672294
      py      :     1.208674
      dz2     :     0.005681  d :     0.040949
      dxz     :     0.001098
      dyz     :     0.011161
      dx2y2   :     0.013124
      dxy     :     0.009885
      f0      :     0.000281  f :     0.003037
      f+1     :     0.000031
      f-1     :     0.000595
      f+2     :     0.000494
      f-2     :     0.000135
      f+3     :     0.000573
      f-3     :     0.000928
  1 Pus       :    12.429834  s :    12.429834
      pz      :     9.976589  p :    29.636555
      px      :     9.891508
      py      :     9.768458
      dz2     :     6.192714  d :    31.214042
      dxz     :     6.163049
      dyz     :     6.278078
      dx2y2   :     6.280904
      dxy     :     6.299297
      f0      :     2.739571  f :    18.442126
      f+1     :     2.463078
      f-1     :     2.675398
      f+2     :     2.557448
      f-2     :     2.538477
      f+3     :     2.421366
      f-3     :     3.046788
  2 O s       :     4.031158  s :     4.031158
      pz      :     1.580877  p :     4.539659
      px      :     1.406436
      py      :     1.552347
      dz2     :     0.006614  d :     0.039654
      dxz     :     0.009472
      dyz     :     0.004958
      dx2y2   :     0.007931
      dxy     :     0.010679
      f0      :     0.000338  f :     0.002884
      f+1     :     0.000382
      f-1     :     0.000126
      f+2     :     0.000381
      f-2     :     0.000640
      f+3     :     0.000396
      f-3     :     0.000620
  3 O s       :     3.913461  s :     3.913461
      pz      :     1.611368  p :     4.693865
      px      :     1.476462
      py      :     1.606034
      dz2     :     0.002541  d :     0.030553
      dxz     :     0.004810
      dyz     :     0.007384
      dx2y2   :     0.006568
      dxy     :     0.009250
      f0      :     0.000212  f :     0.001220
      f+1     :     0.000225
      f-1     :     0.000046
      f+2     :     0.000245
      f-2     :     0.000249
      f+3     :     0.000123
      f-3     :     0.000120
  4 S s       :     5.134041  s :     5.134041
      pz      :     2.711917  p :     8.210967
      px      :     2.732179
      py      :     2.766871
      dz2     :     0.232914  d :     1.123464
      dxz     :     0.268213
      dyz     :     0.225036
      dx2y2   :     0.215602
      dxy     :     0.181699
      f0      :     0.012937  f :     0.140427
      f+1     :     0.031708
      f-1     :     0.025578
      f+2     :     0.021159
      f-2     :     0.018120
      f+3     :     0.020399
      f-3     :     0.010527
  5 O s       :     3.909890  s :     3.909890
      pz      :     1.675719  p :     4.709096
      px      :     1.664722
      py      :     1.368654
      dz2     :     0.003755  d :     0.030248
      dxz     :     0.002323
      dyz     :     0.006854
      dx2y2   :     0.012169
      dxy     :     0.005147
      f0      :     0.000187  f :     0.001234
      f+1     :     0.000098
      f-1     :     0.000180
      f+2     :     0.000279
      f-2     :     0.000106
      f+3     :     0.000156
      f-3     :     0.000227
  6 O s       :     3.910333  s :     3.910333
      pz      :     1.281638  p :     4.628121
      px      :     1.665851
      py      :     1.680632
      dz2     :     0.016780  d :     0.040870
      dxz     :     0.011597
      dyz     :     0.011186
      dx2y2   :     0.000569
      dxy     :     0.000739
      f0      :     0.000907  f :     0.002410
      f+1     :     0.000686
      f-1     :     0.000602
      f+2     :     0.000103
      f-2     :     0.000106
      f+3     :     0.000003
      f-3     :     0.000004
  7 O s       :     3.912032  s :     3.912032
      pz      :     1.634454  p :     4.624594
      px      :     1.379441
      py      :     1.610699
      dz2     :     0.005314  d :     0.041150
      dxz     :     0.010356
      dyz     :     0.003822
      dx2y2   :     0.010718
      dxy     :     0.010940
      f0      :     0.000222  f :     0.002431
      f+1     :     0.000416
      f-1     :     0.000097
      f+2     :     0.000344
      f-2     :     0.000387
      f+3     :     0.000486
      f-3     :     0.000478


                     *******************************
                     * LOEWDIN POPULATION ANALYSIS *
                     *******************************

----------------------
LOEWDIN ATOMIC CHARGES
----------------------
   0 O :   -0.082658
   1 Pu:    0.429491
   2 O :   -0.092619
   3 O :   -0.177814
   4 S :    0.724573
   5 O :   -0.196621
   6 O :   -0.303578
   7 O :   -0.300773

-------------------------------
LOEWDIN REDUCED ORBITAL CHARGES
-------------------------------
  0 O s       :     3.553889  s :     3.553889
      pz      :     1.536324  p :     4.422895
      px      :     1.558488
      py      :     1.328084
      dz2     :     0.014918  d :     0.097702
      dxz     :     0.001602
      dyz     :     0.021052
      dx2y2   :     0.043165
      dxy     :     0.016965
      f0      :     0.000742  f :     0.008172
      f+1     :     0.000093
      f-1     :     0.001562
      f+2     :     0.001339
      f-2     :     0.000329
      f+3     :     0.001466
      f-3     :     0.002641
  1 Pus       :    12.014774  s :    12.014774
      pz      :    10.006374  p :    29.865313
      px      :     9.961995
      py      :     9.896944
      dz2     :     6.338411  d :    32.263901
      dxz     :     6.388798
      dyz     :     6.453013
      dx2y2   :     6.580008
      dxy     :     6.503670
      f0      :     2.844577  f :    19.426522
      f+1     :     2.553034
      f-1     :     2.779552
      f+2     :     2.731969
      f-2     :     2.678400
      f+3     :     2.586330
      f-3     :     3.252659
  2 O s       :     3.556600  s :     3.556600
      pz      :     1.507574  p :     4.433517
      px      :     1.438198
      py      :     1.487744
      dz2     :     0.010199  d :     0.094711
      dxz     :     0.027181
      dyz     :     0.011012
      dx2y2   :     0.018114
      dxy     :     0.028205
      f0      :     0.001025  f :     0.007792
      f+1     :     0.000802
      f-1     :     0.000243
      f+2     :     0.001093
      f-2     :     0.001884
      f+3     :     0.000919
      f-3     :     0.001826
  3 O s       :     3.480357  s :     3.480357
      pz      :     1.550007  p :     4.628030
      px      :     1.466981
      py      :     1.611042
      dz2     :     0.006091  d :     0.066077
      dxz     :     0.014356
      dyz     :     0.013946
      dx2y2   :     0.014498
      dxy     :     0.017187
      f0      :     0.000521  f :     0.003350
      f+1     :     0.000360
      f-1     :     0.000172
      f+2     :     0.000664
      f-2     :     0.000656
      f+3     :     0.000504
      f-3     :     0.000473
  4 S s       :     4.708748  s :     4.708748
      pz      :     2.824660  p :     8.394420
      px      :     2.802303
      py      :     2.767457
      dz2     :     0.377329  d :     1.771937
      dxz     :     0.420923
      dyz     :     0.335897
      dx2y2   :     0.347949
      dxy     :     0.289839
      f0      :     0.046584  f :     0.400323
      f+1     :     0.084516
      f-1     :     0.067055
      f+2     :     0.059278
      f-2     :     0.050651
      f+3     :     0.054148
      f-3     :     0.038091
  5 O s       :     3.483310  s :     3.483310
      pz      :     1.598234  p :     4.646611
      px      :     1.609491
      py      :     1.438885
      dz2     :     0.007336  d :     0.063450
      dxz     :     0.009273
      dyz     :     0.013078
      dx2y2   :     0.025301
      dxy     :     0.008462
      f0      :     0.000429  f :     0.003251
      f+1     :     0.000152
      f-1     :     0.000409
      f+2     :     0.000815
      f-2     :     0.000247
      f+3     :     0.000493
      f-3     :     0.000706
  6 O s       :     3.557204  s :     3.557204
      pz      :     1.456896  p :     4.675577
      px      :     1.610023
      py      :     1.608658
      dz2     :     0.036884  d :     0.066427
      dxz     :     0.016074
      dyz     :     0.011596
      dx2y2   :     0.000968
      dxy     :     0.000905
      f0      :     0.002012  f :     0.004369
      f+1     :     0.001252
      f-1     :     0.000759
      f+2     :     0.000181
      f-2     :     0.000150
      f+3     :     0.000008
      f-3     :     0.000008
  7 O s       :     3.557816  s :     3.557816
      pz      :     1.601424  p :     4.671896
      px      :     1.492784
      py      :     1.577688
      dz2     :     0.007787  d :     0.066663
      dxz     :     0.018050
      dyz     :     0.005399
      dx2y2   :     0.016804
      dxy     :     0.018622
      f0      :     0.000531  f :     0.004398
      f+1     :     0.000583
      f-1     :     0.000148
      f+2     :     0.000642
      f-2     :     0.000770
      f+3     :     0.000679
      f-3     :     0.001046


                      *****************************
                      * MAYER POPULATION ANALYSIS *
                      *****************************

  NA   - Mulliken gross atomic population
  ZA   - Total nuclear charge
  QA   - Mulliken gross atomic charge
  VA   - Mayer's total valence
  BVA  - Mayer's bonded valence
  FA   - Mayer's free valence

  ATOM       NA         ZA         QA         VA         BVA        FA
  0 O      8.6037     8.0000    -0.6037     1.2103     1.2103    -0.0000
  1 Pu    91.7226    94.0000     2.2774     3.5287     3.5287     0.0000
  2 O      8.6134     8.0000    -0.6134     1.2471     1.2471     0.0000
  3 O      8.6391     8.0000    -0.6391     1.7210     1.7210     0.0000
  4 S     14.6089    16.0000     1.3911     5.7474     5.7474    -0.0000
  5 O      8.6505     8.0000    -0.6505     1.7225     1.7225    -0.0000
  6 O      8.5817     8.0000    -0.5817     1.8844     1.8844     0.0000
  7 O      8.5802     8.0000    -0.5802     1.8961     1.8961    -0.0000

  Mayer bond orders larger than 0.1
B(  0-O ,  1-Pu) :   1.0908 B(  1-Pu,  2-O ) :   1.1371 B(  1-Pu,  3-O ) :   0.6145 
B(  1-Pu,  5-O ) :   0.5735 B(  3-O ,  4-S ) :   1.0109 B(  4-S ,  5-O ) :   1.0608 
B(  4-S ,  6-O ) :   1.7980 B(  4-S ,  7-O ) :   1.8116 

-------
TIMINGS
-------

Total SCF time: 0 days 0 hours 14 min 51 sec 

Total time                  ....     891.401 sec
Sum of individual times     ....     888.037 sec  ( 99.6%)

Fock matrix formation       ....     851.509 sec  ( 95.5%)
Diagonalization             ....      22.178 sec  (  2.5%)
Density matrix formation    ....       0.495 sec  (  0.1%)
Population analysis         ....       0.101 sec  (  0.0%)
Initial guess               ....       0.069 sec  (  0.0%)
Orbital Transformation      ....       0.000 sec  (  0.0%)
Orbital Orthonormalization  ....       0.000 sec  (  0.0%)
DIIS solution               ....      13.686 sec  (  1.5%)


           ************************************************************
           *        Program running with 20 parallel MPI-processes    *
           *              working on a common directory               *
           ************************************************************

------------------------------------------------------------------------------
                                ORCA  MP2 
------------------------------------------------------------------------------

Freezing NCore=90 chemical core electrons
MP2 will be done in the AO integral direct mode
The Q1-step will be done using symmetric double matrices
Dimension of the basis                    ...  388
Memory devoted for MP2                    ... 31500 MB   
Memory needed for all in one shot         ...  448 MB
Number of MOs that can be treated together...  140      
MP2 density construction                  ... relaxed
The MP2 gradient is requested => amplitudes will be stored on disk
Total number of MOs              ...   34
Number of MOs treated per batch  ...    2 
Number of batches necessary      ...    1 
OPERATORS   0/  0 PASS   0
-----------------------------------------------
 MP2 CORRELATION ENERGY   :     -2.685714809 Eh
-----------------------------------------------


---------------------
MP2 DENSITY FORMATION
[...]
      px      :     1.596900
      py      :     1.584243
      dz2     :     0.045067  d :     0.097845
      dxz     :     0.020811
      dyz     :     0.018833
      dx2y2   :     0.006584
      dxy     :     0.006549
      f0      :     0.002825  f :     0.007663
      f+1     :     0.001649
      f-1     :     0.001389
      f+2     :     0.000563
      f-2     :     0.000540
      f+3     :     0.000348
      f-3     :     0.000350
  7 O s       :     3.540035  s :     3.540035
      pz      :     1.581231  p :     4.637288
      px      :     1.490386
      py      :     1.565671
      dz2     :     0.013802  d :     0.097848
      dxz     :     0.026032
      dyz     :     0.011304
      dx2y2   :     0.023433
      dxy     :     0.023277
      f0      :     0.000967  f :     0.007664
      f+1     :     0.001104
      f-1     :     0.000521
      f+2     :     0.001221
      f-2     :     0.001223
      f+3     :     0.001182
      f-3     :     0.001446


                      *****************************
                      * MAYER POPULATION ANALYSIS *
                      *****************************

  NA   - Mulliken gross atomic population
  ZA   - Total nuclear charge
  QA   - Mulliken gross atomic charge
  VA   - Mayer's total valence
  BVA  - Mayer's bonded valence
  FA   - Mayer's free valence

  ATOM       NA         ZA         QA         VA         BVA        FA
  0 O      8.5134     8.0000    -0.5134     1.3842     0.7425     0.6417
  1 Pu    91.9349    94.0000     2.0651     4.0697     2.3529     1.7169
  2 O      8.5133     8.0000    -0.5133     1.3855     0.7437     0.6418
  3 O      8.6158     8.0000    -0.6158     2.0885     1.5714     0.5171
  4 S     14.6495    16.0000     1.3505     5.8965     5.4032     0.4933
  5 O      8.6161     8.0000    -0.6161     2.0879     1.5708     0.5171
  6 O      8.5785     8.0000    -0.5785     2.1982     1.7455     0.4526
  7 O      8.5785     8.0000    -0.5785     2.1983     1.7456     0.4526

  Mayer bond orders larger than 0.1
B(  0-O ,  1-Pu) :   0.6052 B(  1-Pu,  2-O ) :   0.6065 B(  1-Pu,  3-O ) :   0.5171 
B(  1-Pu,  5-O ) :   0.5165 B(  3-O ,  4-S ) :   0.9811 B(  4-S ,  5-O ) :   0.9812 
B(  4-S ,  6-O ) :   1.6892 B(  4-S ,  7-O ) :   1.6894 


                *******************************************
                * RELAXED MP2 DENSITY POPULATION ANALYSIS *
                *******************************************

------------------------------------------------------------------------------
                           ORCA POPULATION ANALYSIS
------------------------------------------------------------------------------
Input electron density              ... /home/nikolayandreadi_2125/_scratch/MP2/PuO2_SO4.pmp2re
BaseName (.gbw .S,...)              ... /home/nikolayandreadi_2125/_scratch/MP2/PuO2_SO4

                    ********************************
                    * MULLIKEN POPULATION ANALYSIS *
                    ********************************

-----------------------
MULLIKEN ATOMIC CHARGES
-----------------------
   0 O :   -0.288204
   1 Pu:    1.417358
   2 O :   -0.288117
   3 O :   -0.499270
   4 S :    1.098159
   5 O :   -0.499500
   6 O :   -0.470232
   7 O :   -0.470194
Sum of atomic charges:   -0.0000000

--------------------------------
MULLIKEN REDUCED ORBITAL CHARGES
--------------------------------
  0 O s       :     3.982755  s :     3.982755
      pz      :     1.459391  p :     4.228680
      px      :     1.465909
      py      :     1.303380
      dz2     :     0.011393  d :     0.070207
      dxz     :     0.007467
      dyz     :     0.018902
      dx2y2   :     0.012874
      dxy     :     0.019572
      f0      :     0.000758  f :     0.006562
      f+1     :     0.000395
      f-1     :     0.001144
      f+2     :     0.001074
      f-2     :     0.000654
      f+3     :     0.001277
      f-3     :     0.001259
  1 Pus       :    12.636694  s :    12.636694
      pz      :     9.967736  p :    29.709480
      px      :     9.919705
      py      :     9.822040
      dz2     :     6.258897  d :    31.391703
      dxz     :     6.155641
      dyz     :     6.329173
      dx2y2   :     6.297823
      dxy     :     6.350169
      f0      :     2.798496  f :    18.844765
      f+1     :     2.613776
      f-1     :     2.806063
      f+2     :     2.536702
      f-2     :     2.507669
      f+3     :     2.573406
      f-3     :     3.008654
  2 O s       :     3.982726  s :     3.982726
      pz      :     1.429640  p :     4.228637
      px      :     1.349468
      py      :     1.449530
      dz2     :     0.014252  d :     0.070195
      dxz     :     0.014710
      dyz     :     0.011115
      dx2y2   :     0.016356
      dxy     :     0.013762
      f0      :     0.000778  f :     0.006559
      f+1     :     0.001058
      f-1     :     0.000609
      f+2     :     0.000992
      f-2     :     0.001057
      f+3     :     0.001069
      f-3     :     0.000997
  3 O s       :     3.898495  s :     3.898495
      pz      :     1.562605  p :     4.534917
      px      :     1.433649
      py      :     1.538664
      dz2     :     0.009470  d :     0.061717
      dxz     :     0.010812
      dyz     :     0.013122
      dx2y2   :     0.013152
      dxy     :     0.015160
      f0      :     0.000586  f :     0.004141
      f+1     :     0.000629
      f-1     :     0.000463
      f+2     :     0.000647
      f-2     :     0.000653
      f+3     :     0.000587
      f-3     :     0.000577
  4 S s       :     5.131172  s :     5.131172
      pz      :     2.749701  p :     8.388053
      px      :     2.791037
      py      :     2.847315
      dz2     :     0.265964  d :     1.238105
      dxz     :     0.286115
      dyz     :     0.246649
      dx2y2   :     0.229342
      dxy     :     0.210035
      f0      :     0.012498  f :     0.144511
      f+1     :     0.036259
      f-1     :     0.025481
      f+2     :     0.020488
      f-2     :     0.017373
      f+3     :     0.020306
      f-3     :     0.012105
  5 O s       :     3.898484  s :     3.898484
      pz      :     1.601097  p :     4.535159
      px      :     1.583435
      py      :     1.350627
      dz2     :     0.010397  d :     0.061716
      dxz     :     0.009004
      dyz     :     0.012907
      dx2y2   :     0.017001
      dxy     :     0.012407
      f0      :     0.000559  f :     0.004141
      f+1     :     0.000496
      f-1     :     0.000607
      f+2     :     0.000671
      f-2     :     0.000518
      f+3     :     0.000626
      f-3     :     0.000664
  6 O s       :     3.892007  s :     3.892007
      pz      :     1.295072  p :     4.506975
      px      :     1.611621
      py      :     1.600282
      dz2     :     0.019608  d :     0.066095
      dxz     :     0.016761
      dyz     :     0.017112
      dx2y2   :     0.006255
      dxy     :     0.006360
      f0      :     0.001295  f :     0.005154
      f+1     :     0.001115
      f-1     :     0.001105
      f+2     :     0.000474
      f-2     :     0.000477
      f+3     :     0.000344
      f-3     :     0.000344
  7 O s       :     3.892000  s :     3.892000
      pz      :     1.570793  p :     4.506942
      px      :     1.376764
      py      :     1.559385
      dz2     :     0.011130  d :     0.066098
      dxz     :     0.015198
      dyz     :     0.009248
      dx2y2   :     0.015218
      dxy     :     0.015304
      f0      :     0.000580  f :     0.005155
      f+1     :     0.000874
      f-1     :     0.000458
      f+2     :     0.000762
      f-2     :     0.000763
      f+3     :     0.000880
      f-3     :     0.000837


                     *******************************
                     * LOEWDIN POPULATION ANALYSIS *
                     *******************************

----------------------
LOEWDIN ATOMIC CHARGES
----------------------
   0 O :    0.090242
   1 Pu:   -0.063673
   2 O :    0.090345
   3 O :   -0.085613
   4 S :    0.498233
   5 O :   -0.085741
   6 O :   -0.221913
   7 O :   -0.221880

-------------------------------
LOEWDIN REDUCED ORBITAL CHARGES
-------------------------------
  0 O s       :     3.538193  s :     3.538193
      pz      :     1.383016  p :     4.199624
      px      :     1.376111
      py      :     1.440497
      dz2     :     0.024879  d :     0.157256
      dxz     :     0.008206
      dyz     :     0.037315
      dx2y2   :     0.057768
      dxy     :     0.029088
      f0      :     0.001567  f :     0.014685
      f+1     :     0.000467
      f-1     :     0.002632
      f+2     :     0.002638
      f-2     :     0.000934
      f+3     :     0.002471
      f-3     :     0.003977
  1 Pus       :    11.986994  s :    11.986994
      pz      :     9.965226  p :    29.769036
      px      :     9.936096
      py      :     9.867714
      dz2     :     6.397831  d :    32.454233
      dxz     :     6.395215
      dyz     :     6.510143
      dx2y2   :     6.604368
      dxy     :     6.546676
      f0      :     2.916198  f :    19.853411
      f+1     :     2.698629
      f-1     :     2.910928
      f+2     :     2.721460
      f-2     :     2.662821
      f+3     :     2.716945
      f-3     :     3.226428
  2 O s       :     3.538258  s :     3.538258
      pz      :     1.390570  p :     4.199514
      px      :     1.405601
      py      :     1.403343
      dz2     :     0.021329  d :     0.157205
      dxz     :     0.040488
      dyz     :     0.023298
      dx2y2   :     0.029975
      dxy     :     0.042115
      f0      :     0.001891  f :     0.014678
      f+1     :     0.001867
      f-1     :     0.000900
      f+2     :     0.002018
      f-2     :     0.003229
      f+3     :     0.001981
      f-3     :     0.002792
  3 O s       :     3.478554  s :     3.478554
      pz      :     1.506466  p :     4.495620
      px      :     1.438671
      py      :     1.550483
      dz2     :     0.013820  d :     0.104595
      dxz     :     0.021693
      dyz     :     0.021229
      dx2y2   :     0.022268
      dxy     :     0.025585
      f0      :     0.000959  f :     0.006845
      f+1     :     0.000836
      f-1     :     0.000622
      f+2     :     0.001141
      f-2     :     0.001190
      f+3     :     0.001049
      f-3     :     0.001048
  4 S s       :     4.702543  s :     4.702543
      pz      :     2.840545  p :     8.469045
      px      :     2.824624
      py      :     2.803876
      dz2     :     0.422713  d :     1.912044
      dxz     :     0.440878
      dyz     :     0.355100
      dx2y2   :     0.371848
      dxy     :     0.321505
      f0      :     0.049664  f :     0.418135
      f+1     :     0.094310
      f-1     :     0.067322
      f+2     :     0.058654
      f-2     :     0.049511
      f+3     :     0.054686
      f-3     :     0.043988
  5 O s       :     3.478507  s :     3.478507
      pz      :     1.532155  p :     4.495790
      px      :     1.538701
      py      :     1.424935
      dz2     :     0.015050  d :     0.104598
      dxz     :     0.018734
      dyz     :     0.020143
      dx2y2   :     0.033371
      dxy     :     0.017301
      f0      :     0.000853  f :     0.006846
      f+1     :     0.000603
      f-1     :     0.000948
      f+2     :     0.001338
      f-2     :     0.000728
      f+3     :     0.001096
      f-3     :     0.001281
  6 O s       :     3.544382  s :     3.544382
      pz      :     1.463389  p :     4.571042
      px      :     1.563469
      py      :     1.544183
      dz2     :     0.043238  d :     0.098665
      dxz     :     0.021885
      dyz     :     0.020134
      dx2y2   :     0.006720
      dxy     :     0.006688
      f0      :     0.002766  f :     0.007825
      f+1     :     0.001721
      f-1     :     0.001501
      f+2     :     0.000576
      f-2     :     0.000562
      f+3     :     0.000349
      f-3     :     0.000350
  7 O s       :     3.544376  s :     3.544376
      pz      :     1.555961  p :     4.571009
      px      :     1.484620
      py      :     1.530428
      dz2     :     0.014262  d :     0.098668
      dxz     :     0.025890
      dyz     :     0.011569
      dx2y2   :     0.023534
      dxy     :     0.023414
      f0      :     0.000953  f :     0.007826
      f+1     :     0.001177
      f-1     :     0.000537
      f+2     :     0.001234
      f-2     :     0.001240
      f+3     :     0.001238
      f-3     :     0.001446


                      *****************************
                      * MAYER POPULATION ANALYSIS *
                      *****************************

  NA   - Mulliken gross atomic population
  ZA   - Total nuclear charge
  QA   - Mulliken gross atomic charge
  VA   - Mayer's total valence
  BVA  - Mayer's bonded valence
  FA   - Mayer's free valence

  ATOM       NA         ZA         QA         VA         BVA        FA
  0 O      8.2882     8.0000    -0.2882     1.5203     1.0179     0.5023
  1 Pu    92.5826    94.0000     1.4174     4.4355     3.1957     1.2398
  2 O      8.2881     8.0000    -0.2881     1.5218     1.0193     0.5025
  3 O      8.4993     8.0000    -0.4993     2.2291     1.7461     0.4831
  4 S     14.9018    16.0000     1.0982     6.1489     5.6916     0.4573
  5 O      8.4995     8.0000    -0.4995     2.2286     1.7456     0.4830
  6 O      8.4702     8.0000    -0.4702     2.3452     1.9101     0.4351
  7 O      8.4702     8.0000    -0.4702     2.3453     1.9102     0.4351

  Mayer bond orders larger than 0.1
B(  0-O ,  1-Pu) :   0.8633 B(  1-Pu,  2-O ) :   0.8647 B(  1-Pu,  3-O ) :   0.6475 
B(  1-Pu,  5-O ) :   0.6470 B(  3-O ,  4-S ) :   0.9978 B(  4-S ,  5-O ) :   0.9979 
B(  4-S ,  6-O ) :   1.8004 B(  4-S ,  7-O ) :   1.8006 


----------------------------------
MP2 DERIVATIVE INTEGRAL GENERATION
----------------------------------


Input Wavefunction Amplitudes       ... /home/nikolayandreadi_2125/_scratch/MP2/PuO2_SO4.mp2tsaa.tmp.proc19
Input Correlated Electron Density   ... /home/nikolayandreadi_2125/_scratch/MP2/PuO2_SO4.pmp2re
Input Energy Weighted Density       ... /home/nikolayandreadi_2125/_scratch/MP2/PuO2_SO4.wmp2.tmp
Input SCF Electron Density          ... /home/nikolayandreadi_2125/_scratch/MP2/PuO2_SO4.scfp.tmp

One-Electron Terms    ...
                        ... One-Electron Terms done
Prescreening matrices              ... done

Batch handling in the gradient evaluation:
Memory available                      ... 31500.0 MB
Memory per occupied orbital in Q2     ...   39.1 MB
Memory per occupied orbital in Q3     ...    0.1 MB
Total memory requirement per |i>      ...   39.2 MB
Max. Number of orbitals possible      ...    803
Number of orbitals treated per batch  ...     34
Number of batches to be done          ...      1
Batch   0: i=   45 ...    78

---------------------------------------
MP2 TOTAL ENERGY:   -30389.207627803 Eh
---------------------------------------

-----------------------------------
NORM OF THE MP2 GRADIENT:  0.000157
-----------------------------------

-------------------------   --------------------
FINAL SINGLE POINT ENERGY    -30389.207627803229
-------------------------   --------------------

                                *** OPTIMIZATION RUN DONE ***

                            ***************************************
                            *     ORCA property calculations      *
                            ***************************************

                                    ---------------------
                                    Active property flags
                                    ---------------------
   (+) Dipole Moment


------------------------------------------------------------------------------
                       ORCA ELECTRIC PROPERTIES CALCULATION
------------------------------------------------------------------------------

Dipole Moment Calculation                       ... on
Quadrupole Moment Calculation                   ... off
Polarizability Calculation                      ... off
GBWName                                         ... /home/nikolayandreadi_2125/_scratch/MP2/PuO2_SO4.gbw
Electron density file                           ... /home/nikolayandreadi_2125/_scratch/MP2/PuO2_SO4.scfp.tmp
The origin for moment calculation is the CENTER OF MASS  = ( 0.494755,  2.552822 -0.291949)

-------------
DIPOLE MOMENT
-------------
                                X             Y             Z
Electronic contribution:     23.65906     -14.35813     -20.32621
Nuclear contribution   :    -22.08507      13.40180      18.97433
                        -----------------------------------------
Total Dipole Moment    :      1.57399      -0.95633      -1.35188
                        -----------------------------------------
Magnitude (a.u.)       :      2.28464
Magnitude (Debye)      :      5.80710


                         *** MP2 UNRELAXED DENSITY ***

------------------------------------------------------------------------------
                       ORCA ELECTRIC PROPERTIES CALCULATION
------------------------------------------------------------------------------

Dipole Moment Calculation                       ... on
Quadrupole Moment Calculation                   ... off
Polarizability Calculation                      ... off
GBWName                                         ... /home/nikolayandreadi_2125/_scratch/MP2/PuO2_SO4.gbw
Electron density file                           ... /home/nikolayandreadi_2125/_scratch/MP2/PuO2_SO4.pmp2ur
The origin for moment calculation is the CENTER OF MASS  = ( 0.494755,  2.552822 -0.291949)

-------------
DIPOLE MOMENT
-------------
                                X             Y             Z
Electronic contribution:     23.70306     -14.38446     -20.36408
Nuclear contribution   :    -22.08507      13.40180      18.97433
                        -----------------------------------------
Total Dipole Moment    :      1.61799      -0.98265      -1.38975
                        -----------------------------------------
Magnitude (a.u.)       :      2.34838
Magnitude (Debye)      :      5.96912


                           *** MP2 RELAXED DENSITY ***

------------------------------------------------------------------------------
                       ORCA ELECTRIC PROPERTIES CALCULATION
------------------------------------------------------------------------------

Dipole Moment Calculation                       ... on
Quadrupole Moment Calculation                   ... off
Polarizability Calculation                      ... off
GBWName                                         ... /home/nikolayandreadi_2125/_scratch/MP2/PuO2_SO4.gbw
Electron density file                           ... /home/nikolayandreadi_2125/_scratch/MP2/PuO2_SO4.pmp2re
The origin for moment calculation is the CENTER OF MASS  = ( 0.494755,  2.552822 -0.291949)

-------------
DIPOLE MOMENT
-------------
                                X             Y             Z
Electronic contribution:     23.61222     -14.32867     -20.28608
Nuclear contribution   :    -22.08507      13.40180      18.97433
                        -----------------------------------------
Total Dipole Moment    :      1.52715      -0.92686      -1.31175
                        -----------------------------------------
Magnitude (a.u.)       :      2.21630
Magnitude (Debye)      :      5.63337


Timings for individual modules:

Sum of individual times         ...    10994.188 sec (= 183.236 min)
GTO integral calculation        ...       25.370 sec (=   0.423 min)   0.2 %
Relativistic integrals          ...        9.755 sec (=   0.163 min)   0.1 %
SCF iterations                  ...     2757.258 sec (=  45.954 min)  25.1 %
MP2 module                      ...     8201.215 sec (= 136.687 min)  74.6 %
Geometry relaxation             ...        0.590 sec (=   0.010 min)   0.0 %
                             ****ORCA TERMINATED NORMALLY****
TOTAL RUN TIME: 0 days 3 hours 3 minutes 25 seconds 392 msec
