
                                 *****************
                                 * O   R   C   A *
                                 *****************

           --- An Ab Initio, DFT and Semiempirical electronic structure package ---

                  #######################################################
                  #                        -***-                        #
                  #  Department of molecular theory and spectroscopy    #
                  #              Directorship: Frank Neese              #
                  # Max Planck Institute for Chemical Energy Conversion #
                  #                  D-45470 Muelheim/Ruhr              #
                  #                       Germany                       #
                  #                                                     #
                  #                  All rights reserved                #
                  #                        -***-                        #
                  #######################################################


                         Program Version 4.0.1.2 - RELEASE -


 With contributions from (in alphabetic order):
   Daniel Aravena         : Magnetic Properties
   Michael Atanasov       : Ab Initio Ligand Field Theory
   Ute Becker             : Parallelization
   Martin Brehm           : Molecular dynamics
   Dmytro Bykov           : SCF Hessian
   Vijay G. Chilkuri      : MRCI spin determinant printing
   Dipayan Datta          : RHF DLPNO-CCSD density
   Achintya Kumar Dutta   : EOM-CC, STEOM-CC
   Dmitry Ganyushin       : Spin-Orbit,Spin-Spin,Magnetic field MRCI
   Yang Guo               : DLPNO-NEVPT2, CIM, IAO-localization
   Andreas Hansen         : Spin unrestricted coupled pair/coupled cluster methods
   Lee Huntington         : MR-EOM, pCC
   Robert Izsak           : Overlap fitted RIJCOSX, COSX-SCS-MP3, EOM
   Christian Kollmar      : KDIIS, OOCD, Brueckner-CCSD(T), CCSD density
   Simone Kossmann        : Meta GGA functionals, TD-DFT gradient, OOMP2, MP2 Hessian
   Martin Krupicka        : AUTO-CI
   Dagmar Lenk            : GEPOL surface
   Dimitrios Liakos       : Extrapolation schemes; parallel MDCI
   Dimitrios Manganas     : ROCIS; embedding schemes
   Dimitrios Pantazis     : SARC Basis sets
   Taras Petrenko         : DFT Hessian,TD-DFT gradient, ASA, ECA, R-Raman, ABS, FL, XAS/XES, NRVS
   Peter Pinski           : DLPNO-MP2
   Christoph Reimann      : Effective Core Potentials
   Marius Retegan         : Local ZFS, SOC
   Christoph Riplinger    : Optimizer, TS searches, QM/MM, DLPNO-CCSD(T), (RO)-DLPNO pert. Triples
   Tobias Risthaus        : Range-separated hybrids, TD-DFT gradient, RPA, STAB
   Michael Roemelt        : Restricted open shell CIS
   Masaaki Saitow         : Open-shell DLPNO
   Barbara Sandhoefer     : DKH picture change effects
   Kantharuban Sivalingam : CASSCF convergence, NEVPT2, FIC-MRCI
   Georgi Stoychev        : AutoAux
   Boris Wezisla          : Elementary symmetry handling
   Frank Wennmohs         : Technical directorship


 We gratefully acknowledge several colleagues who have allowed us to
 interface, adapt or use parts of their codes:
   Stefan Grimme, W. Hujo, H. Kruse,             : VdW corrections, initial TS optimization,
                  C. Bannwarth                     DFT functionals, gCP, sTDA/sTD-DF
   Ed Valeev                                     : LibInt (2-el integral package), F12 methods
   Garnet Chan, S. Sharma, J. Yang, R. Olivares  : DMRG
   Ulf Ekstrom                                   : XCFun DFT Library
   Mihaly Kallay                                 : mrcc  (arbitrary order and MRCC methods)
   Andreas Klamt, Michael Diedenhofen            : otool_cosmo (COSMO solvation model)
   Jiri Pittner, Ondrej Demel                    : Mk-CCSD
   Frank Weinhold                                : gennbo (NPA and NBO analysis)
   Christopher J. Cramer and Donald G. Truhlar   : smd solvation model


 Your calculation uses the libint2 library for the computation of 2-el integrals
 For citations please refer to: http://libint.valeyev.net

 This ORCA versions uses:
   CBLAS   interface :  Fast vector & matrix operations
   LAPACKE interface :  Fast linear algebra routines
   SCALAPACK package :  Parallel linear algebra routines


Your calculation utilizes the basis: DKH-def2-TZVP
   Exponents from def2-TZVP [F. Weigend and R. Ahlrichs, Phys. Chem. Chem. Phys. 7, 3297 (2005)],
   recontracted for DKH2 by D. A. Pantazis.

Your calculation utilizes the auxiliary basis: SARC/J 
   decontracted def2/J up to Kr:
   F. Weigend, Phys. Chem. Chem. Phys. 8, 1057 (2006)
   and SARC auxiliary basis sets beyond Kr:
   D. A. Pantazis and F. Neese, J. Chem. Theory Comput. 5, 2229 (2009).
   D. A. Pantazis, X. Y. Chen, C. R. Landis and F. Neese, J. Chem. Theory Comput. 4, 908 (2008).
   D. A. Pantazis and F. Neese, Theor. Chem. Acc. 131, 1292 (2012).
   D. A. Pantazis and F. Neese, J. Chem. Theory Comput. 7, 677 (2011).

================================================================================
                                        WARNINGS
                       Please study these warnings very carefully!
================================================================================

Warning: TCutStore was < 0. Adjusted to Thresh (uncritical)

WARNING: In scalar relativistic gradient/hessian runs we need the one-center approximation
  ===> : %rel OneCenter is turned on

WARNING: The frozen-core approximation for MP2-gradient calculations is turned on by default.

WARNING: Geometry Optimization
  ===> : Switching off AutoStart
         For restart on a previous wavefunction, please use MOREAD

WARNING: Post HF methods need fully converged wavefunctions
  ===> : Setting SCFConvForced true
         You can overwrite this default with %scf ConvForced false 


INFO   : the flag for use of LIBINT has been found!

================================================================================
                                       INPUT FILE
================================================================================
NAME = /home/nikolayandreadi_2125/_scratch/MP2/Th_CO3_2.inp
|  1> !Opt MP2 DKH-def2-TZVP DKH SARC/J SlowConv
|  2> 
|  3> %pal
|  4> nproc 20
|  5> end
|  6> 
|  7> %maxcore 31500
|  8> 
|  9> %basis
| 10> newgto Th "SARC-DKH-TZVP" end
| 11> end
| 12> 
| 13> %scf
| 14> MaxIter 5000
| 15> Guess HCore
| 16> end
| 17> 
| 18> %method
| 19> Z_MaxIter 5000
| 20> end
| 21> 
| 22> * xyz 0 1
| 23>   C     -4.941396    0.276693    0.296036
| 24>   O     -4.447683    0.504099   -0.944204
| 25>   O     -4.064328   -0.546052    0.939876
| 26>   O     -5.946154    0.711229    0.754136
| 27>   Th    -2.588533   -0.632097   -0.645651
| 28>   C     -0.114714    0.103005    0.128201
| 29>   O     -0.718572   -1.079374    0.404773
| 30>   O     -1.007767    0.864758   -0.566479
| 31>   O      0.995639    0.412938    0.413261
| 32> **                         ****END OF INPUT****
================================================================================

                       *****************************
                       * Geometry Optimization Run *
                       *****************************

Geometry optimization settings:
Update method            Update   .... BFGS
Choice of coordinates    CoordSys .... Redundant Internals
Initial Hessian          InHess   .... Almoef's Model

Convergence Tolerances:
Energy Change            TolE     ....  5.0000e-06 Eh
Max. Gradient            TolMAXG  ....  3.0000e-04 Eh/bohr
RMS Gradient             TolRMSG  ....  1.0000e-04 Eh/bohr
Max. Displacement        TolMAXD  ....  4.0000e-03 bohr
RMS Displacement         TolRMSD  ....  2.0000e-03 bohr

------------------------------------------------------------------------------
                        ORCA OPTIMIZATION COORDINATE SETUP
------------------------------------------------------------------------------

The optimization will be done in new redundant internal coordinates
Making redundant internal coordinates   ...  (new redundants) done
Evaluating the initial hessian          ...  (Almloef) done
Evaluating the coordinates              ...  done
Calculating the B-matrix                .... done
Calculating the G-matrix                .... done
Diagonalizing the G-matrix              .... done
The first mode is                       ....   25
The number of degrees of freedom        ....   21

    -----------------------------------------------------------------
                    Redundant Internal Coordinates


    -----------------------------------------------------------------
         Definition                    Initial Value    Approx d2E/dq
    -----------------------------------------------------------------
      1. B(O   1,C   0)                  1.3541         0.638422   
      2. B(O   2,C   0)                  1.3641         0.615524   
      3. B(O   3,C   0)                  1.1867         1.181015   
      4. B(Th  4,O   2)                  2.1678         0.108012   
      5. B(Th  4,O   1)                  2.1992         0.096234   
      6. B(O   6,C   5)                  1.3562         0.633684   
      7. B(O   6,Th  4)                  2.1909         0.099203   
      8. B(O   7,C   5)                  1.3640         0.615769   
      9. B(O   7,Th  4)                  2.1785         0.103858   
     10. B(O   8,C   5)                  1.1875         1.177392   
     11. A(O   1,C   0,O   2)          107.4074         0.430108   
     12. A(O   1,C   0,O   3)          126.9255         0.484319   
     13. A(O   2,C   0,O   3)          125.6661         0.481064   
     14. A(C   0,O   1,Th  4)           95.5735         0.332521   
     15. A(C   0,O   2,Th  4)           96.6872         0.336910   
     16. A(O   1,Th  4,O   6)          153.1360         0.262611   
     17. A(O   6,Th  4,O   7)           60.2326         0.265633   
     18. A(O   1,Th  4,O   2)           60.2159         0.265986   
     19. A(O   2,Th  4,O   7)          116.1133         0.269066   
     20. A(O   1,Th  4,O   7)          105.2704         0.264422   
     21. A(O   2,Th  4,O   6)          103.7973         0.267207   
     22. A(O   6,C   5,O   8)          126.5078         0.483378   
     23. A(O   6,C   5,O   7)          107.4125         0.429564   
     24. A(O   7,C   5,O   8)          126.0649         0.480827   
     25. A(Th  4,O   6,C   5)           95.9853         0.333788   
     26. A(Th  4,O   7,C   5)           96.3081         0.334742   
     27. D(Th  4,O   1,C   0,O   3)    176.5541         0.030036   
     28. D(Th  4,O   1,C   0,O   2)     -3.0996         0.030036   
     29. D(Th  4,O   2,C   0,O   1)      3.1512         0.027768   
     30. D(Th  4,O   2,C   0,O   3)   -176.5080         0.027768   
     31. D(O   7,Th  4,O   1,C   0)   -109.5375         0.001629   
     32. D(O   6,Th  4,O   1,C   0)    -56.4034         0.001629   
     33. D(O   2,Th  4,O   1,C   0)      2.1438         0.001629   
     34. D(O   7,Th  4,O   2,C   0)     91.1584         0.001662   
     35. D(O   1,Th  4,O   2,C   0)     -2.1326         0.001662   
     36. D(O   6,Th  4,O   2,C   0)    154.4807         0.001662   
     37. D(Th  4,O   6,C   5,O   7)      2.2692         0.029557   
     38. D(C   5,O   6,Th  4,O   7)     -1.5615         0.001637   
     39. D(C   5,O   6,Th  4,O   2)   -113.9984         0.001637   
     40. D(Th  4,O   6,C   5,O   8)   -176.3908         0.029557   
     41. D(C   5,O   6,Th  4,O   1)    -64.3238         0.001637   
     42. D(Th  4,O   7,C   5,O   8)    176.3840         0.027791   
     43. D(Th  4,O   7,C   5,O   6)     -2.2836         0.027791   
     44. D(C   5,O   7,Th  4,O   6)      1.5536         0.001650   
     45. D(C   5,O   7,Th  4,O   2)     93.0212         0.001650   
     46. D(C   5,O   7,Th  4,O   1)    156.9415         0.001650   
    -----------------------------------------------------------------

Number of atoms                         .... 9
Number of degrees of freedom            .... 46

         *************************************************************
         *                GEOMETRY OPTIMIZATION CYCLE   1            *
         *************************************************************
---------------------------------
CARTESIAN COORDINATES (ANGSTROEM)
---------------------------------
  C     -4.941396    0.276693    0.296036
  O     -4.447683    0.504099   -0.944204
  O     -4.064328   -0.546052    0.939876
  O     -5.946154    0.711229    0.754136
  Th    -2.588533   -0.632097   -0.645651
  C     -0.114714    0.103005    0.128201
  O     -0.718572   -1.079374    0.404773
  O     -1.007767    0.864758   -0.566479
  O      0.995639    0.412938    0.413261

----------------------------
CARTESIAN COORDINATES (A.U.)
----------------------------
  NO LB      ZA    FRAG     MASS         X           Y           Z
   0 C     6.0000    0    12.011   -9.337885    0.522874    0.559427
   1 O     8.0000    0    15.999   -8.404903    0.952609   -1.784287
   2 O     8.0000    0    15.999   -7.680467   -1.031889    1.776108
   3 O     8.0000    0    15.999  -11.236603    1.344028    1.425111
   4 Th   90.0000    0   232.038   -4.891618   -1.194490   -1.220104
   5 C     6.0000    0    12.011   -0.216778    0.194651    0.242265
   6 O     8.0000    0    15.999   -1.357904   -2.039721    0.764910
   7 O     8.0000    0    15.999   -1.904404    1.634156   -1.070490
   8 O     8.0000    0    15.999    1.881485    0.780340    0.780950

--------------------------------
INTERNAL COORDINATES (ANGSTROEM)
--------------------------------
 C      0   0   0     0.000000000000     0.00000000     0.00000000
 O      1   0   0     1.354127495033     0.00000000     0.00000000
 O      1   2   0     1.364070217126   107.40740115     0.00000000
 O      1   2   3     1.186682680357   126.92554742   179.65369153
 Th     3   1   2     2.167780083814    96.68720374     3.15120027
 C      5   3   1     2.694253572526   113.83976726   124.48121882
 O      6   5   3     1.356155099902    53.97452895    75.91923931
 O      6   5   3     1.363961728282    53.48108494   258.61374650
 O      6   5   3     1.187519032562   177.05049936   176.39478753

---------------------------
INTERNAL COORDINATES (A.U.)
---------------------------
 C      0   0   0     0.000000000000     0.00000000     0.00000000
 O      1   0   0     2.558930116026     0.00000000     0.00000000
 O      1   2   0     2.577719137806   107.40740115     0.00000000
 O      1   2   3     2.242505273743   126.92554742   179.65369153
 Th     3   1   2     4.096510676977    96.68720374     3.15120027
 C      5   3   1     5.091401387413   113.83976726   124.48121882
 O      6   5   3     2.562761733935    53.97452895    75.91923931
 O      6   5   3     2.577514123603    53.48108494   258.61374650
 O      6   5   3     2.244085750362   177.05049936   176.39478753

---------------------
BASIS SET INFORMATION
---------------------
There are 3 groups of distinct atoms

 Group   1 Type C   : 11s6p2d1f contracted to 6s3p2d1f pattern {611111/411/11/1}
 Group   2 Type O   : 11s6p2d1f contracted to 6s3p2d1f pattern {611111/411/11/1}
 Group   3 Type Th  : 29s20p16d12f contracted to 21s13p10d7f pattern {911111111111111111111/8111111111111/7111111111/6111111}

Atom   0C    basis set group =>   1
Atom   1O    basis set group =>   2
Atom   2O    basis set group =>   2
Atom   3O    basis set group =>   2
Atom   4Th   basis set group =>   3
Atom   5C    basis set group =>   1
Atom   6O    basis set group =>   2
Atom   7O    basis set group =>   2
Atom   8O    basis set group =>   2

INFORMATION: There is an auxiliary basis set but the global RI flag is NOT set

-------------------------------
AUXILIARY BASIS SET INFORMATION
-------------------------------
There are 3 groups of distinct atoms

 Group   1 Type C   : 12s5p4d2f1g contracted to 12s5p4d2f1g pattern {111111111111/11111/1111/11/1}
 Group   2 Type O   : 12s5p4d2f1g contracted to 12s5p4d2f1g pattern {111111111111/11111/1111/11/1}
 Group   3 Type Th  : 33s10p8d6f4g2h1i contracted to 33s10p8d6f4g2h1i pattern {111111111111111111111111111111111/1111111111/11111111/111111/1111/11/1}

Atom   0C    basis set group =>   1
Atom   1O    basis set group =>   2
Atom   2O    basis set group =>   2
Atom   3O    basis set group =>   2
Atom   4Th   basis set group =>   3
Atom   5C    basis set group =>   1
Atom   6O    basis set group =>   2
Atom   7O    basis set group =>   2
Atom   8O    basis set group =>   2


           ************************************************************
           *        Program running with 20 parallel MPI-processes    *
           *              working on a common directory               *
           ************************************************************
------------------------------------------------------------------------------
                           ORCA GTO INTEGRAL CALCULATION
------------------------------------------------------------------------------

                         BASIS SET STATISTICS AND STARTUP INFO

 # of primitive gaussian shells          ...  237
 # of primitive gaussian functions       ...  621
 # of contracted shells                  ...  147
 # of contracted basis functions         ...  415
 Highest angular momentum                ...    3
 Maximum contraction depth               ...    9
 Integral package used                   ... LIBINT
 Integral threshhold            Thresh   ...  2.500e-11
 Primitive cut-off              TCut     ...  2.500e-12


------------------------------ INTEGRAL EVALUATION ----------------------------


 * One electron integrals 
 Pre-screening matrix                    ... done
 Shell pair data                         ... done (   0.002 sec)

------------------------------------------------------------------------------
                          ORCA RELATIVISTIC HAMILTONIAN
------------------------------------------------------------------------------

Relativistic Method            ... DKH
Order of DKH treatment         ...   2
Treatment of potential         ... V(e,N)
Eps parameter for DKH          ...   0.00000000010000
Nucleus model                  ... Point Nucleus
Speed of light used            ... 137.03598950000000


            ************************************************
            *        DOUGLAS-KROLL-HESS HAMILTONIAN        *
            *   Programmed by FN according to literature   *
            *        procedures. Special thanks to         *
            *       B.A. Hess, M. Reiher and A. Wolf       *
            *     University Erlangen-Nuernberg/Bonn       *
            ************************************************

Uncontracting the basis (first version)        ... done
Number of contracted basis functions           ...  415
Number of uncontracted basis functions         ...  621
Initializing the DKH file                      ... done
One center approximation for DKH is active
Finding unique atoms                      ... 3 atom types
 ATOMIC NUMBER   6
          ... doing integrals          ... Computing the DKH transformation
          ... Transforming V and pVp to p**2 space
          ... First transformation of V and pVp
          ... Second transformation of Veff
          ... Adding kinetic energy
          ... Back transformation of Veff to r-space
          ... Recontracting the H-matrix
          ... Computing the DKH correction to the H-matrix
          ... adding submatrics to 2 actual atoms
 ATOMIC NUMBER   8
          ... doing integrals          ... Computing the DKH transformation
          ... Transforming V and pVp to p**2 space
          ... First transformation of V and pVp
          ... Second transformation of Veff
          ... Adding kinetic energy
          ... Back transformation of Veff to r-space
          ... Recontracting the H-matrix
          ... Computing the DKH correction to the H-matrix
          ... adding submatrics to 6 actual atoms
 ATOMIC NUMBER  90
          ... doing integrals          ... Computing the DKH transformation
          ... Transforming V and pVp to p**2 space
          ... First transformation of V and pVp
          ... Second transformation of Veff
          ... Adding kinetic energy
          ... Back transformation of Veff to r-space
          ... Recontracting the H-matrix
          ... Computing the DKH correction to the H-matrix
          ... adding submatrics to 1 actual atoms
Storing DKH matrices                           ... done
Getting S**(-1/2)                              ... done
Reading the original H-matrix                  ... done
Adding DKH correction to the H-matrix          ... done
Storing the new modified H-matrix              ... done


           ************************************************************
           *        Program running with 20 parallel MPI-processes    *
           *              working on a common directory               *
           ************************************************************
-------------------------------------------------------------------------------
                                 ORCA SCF
-------------------------------------------------------------------------------

------------
SCF SETTINGS
------------
Hamiltonian:
 Ab initio Hamiltonian  Method          .... Hartree-Fock(GTOs)

Relativistic Settings:
 Scalar relativistic method             .... Douglas-Kroll-Hess
 Order of DKH procedure    Order        ....    2
 Mode of DKH-treatment                  .... V=V(e,N)
 Speed of light used       Velit        ....       137.035989
 Cutoff-constant           Eps          ....            1e-10 


General Settings:
 Integral files         IntName         .... /home/nikolayandreadi_2125/_scratch/MP2/Th_CO3_2
 Hartree-Fock type      HFTyp           .... RHF
 Total Charge           Charge          ....    0
 Multiplicity           Mult            ....    1
 Number of Electrons    NEL             ....  150
 Basis Dimension        Dim             ....  415
 Nuclear Repulsion      ENuc            ....   1417.7480580834 Eh

Convergence Acceleration:
 DIIS                   CNVDIIS         .... on
   Start iteration      DIISMaxIt       ....     0
   Startup error        DIISStart       ....  0.200000
   # of expansion vecs  DIISMaxEq       ....     5
   Bias factor          DIISBfac        ....   1.050
   Max. coefficient     DIISMaxC        ....  10.000
 Newton-Raphson         CNVNR           .... off
 SOSCF                  CNVSOSCF        .... off
 Level Shifting         CNVShift        .... on
   Level shift para.    LevelShift      ....    0.2500
   Turn off err/grad.   ShiftErr        ....    0.0000
 Zerner damping         CNVZerner       .... off
 Static damping         CNVDamp         .... on
   Fraction old density DampFac         ....    0.8500
   Max. Damping (<1)    DampMax         ....    0.9800
   Min. Damping (>=0)   DampMin         ....    0.0000
   Turn off err/grad.   DampErr         ....    0.0300
 Fernandez-Rico         CNVRico         .... off

SCF Procedure:
 Maximum # iterations   MaxIter         ....  5000
 SCF integral mode      SCFMode         .... Direct
   Integral package                     .... LIBINT
 Reset frequeny         DirectResetFreq ....    20
 Integral Threshold     Thresh          ....  2.500e-11 Eh
 Primitive CutOff       TCut            ....  2.500e-12 Eh

Convergence Tolerance:
 Convergence Check Mode ConvCheckMode   .... Total+1el-Energy
 Convergence forced     ConvForced      .... 1
 Energy Change          TolE            ....  1.000e-08 Eh
 1-El. energy change                    ....  1.000e-05 Eh
 DIIS Error             TolErr          ....  5.000e-07


Diagonalization of the overlap matrix:
Smallest eigenvalue                        ... 3.444e-04
Time for diagonalization                   ...    0.036 sec
Threshold for overlap eigenvalues          ... 1.000e-08
Number of eigenvalues below threshold      ... 0
Time for construction of square roots      ...    0.022 sec
Total time needed                          ...    0.059 sec

--------------------
INITIAL GUESS: HCORE
--------------------
                      -----------------
                      INTIAL GUESS DONE 
                      -----------------
--------------
SCF ITERATIONS
--------------
ITER       Energy         Delta-E        Max-DP      RMS-DP      [F,P]     Damp
               ***  Starting incremental Fock matrix formation  ***
  0 -19546.8799726298   0.00000000000024.07571521  0.13832712 71.3155484 0.8500
  1 -21716.2478501788-2169.36787754904120.46437780  0.11655992 57.9927424 0.8500
                               ***Turning on DIIS***
  2 -22987.2173793977-1270.96952921888117.39423941  0.09927011 47.4662870 0.8500
  3 -25748.4202218023-2761.20284240462213.34465506  0.08073336 38.9838596 0.8500
  4 -25729.6535738951  18.76664790718912.48923816  0.06944778 32.7197786 0.8500
  5 -26012.2258918303-282.57231793519210.44103560  0.05871610 27.6249496 0.8500
  6 -26146.2326259366-134.006734106249 8.93079560  0.05001930 23.4052928 0.8500
  7 -26044.5903986230 101.642227313550 7.84145426  0.04306834 19.8464982 0.8500
  8 -26313.6270119069-269.036613283883 6.53814894  0.03631105 16.7869088 0.8500
  9 -26421.9141371223-108.287125215404 5.52260455  0.03080155 14.2272469 0.8500
 10 -26502.4761948885 -80.562057766139 4.68477672  0.02616350 12.0688183 0.8500
 11 -26561.5515212780 -59.075326389520 3.98571645  0.02224363 10.2417561 0.8500
 12 -26608.0293377495 -46.477816471499 3.39544574  0.01891895  8.6913048 0.8500
 13 -26657.6017935586 -49.572455809095 2.88231255  0.01607428  7.3741701 0.8500
 14 -26700.1093998512 -42.507606292646 2.44655090  0.01365716  6.2569758 0.8500
 15 -26735.6880343591 -35.578634507892 2.07752608  0.01160497  5.3090643 0.8500
 16 -26765.5620026724 -29.873968313255 1.76473062  0.00986208  4.5044933 0.8500
 17 -26790.9747352101 -25.412732537723 1.49914118  0.00838113  3.8214865 0.8500
 18 -26812.9094848241 -21.934749614036 1.27329619  0.00712224  3.2417050 0.8500
 19 -26831.8011116277 -18.891626803535 1.08132799  0.00605222  2.7496234 0.8500
               *** Restarting incremental Fock matrix formation ***
                                   *** Resetting DIIS ***
 20 -26759.3939913492  72.407120278502 1.00479721  0.00536169  2.3320355 0.8500
 21 -26824.4598249424 -65.065833593279 0.79954138  0.00441538  1.9242471 0.8500
 22 -26859.0057801604 -34.545955217953 0.65116425  0.00369813  1.6075941 0.8500
 23 -26877.0783913658 -18.072611205451 0.54414816  0.00313177  1.3537620 0.8500
 24 -26888.4411383663 -11.362747000469 0.46052656  0.00266105  1.1449858 0.8500
 25 -26894.8382280042  -6.397089637892 0.39391582  0.00226518  0.9706672 0.8500
 26 -26900.8591473944  -6.020919390146 0.33625943  0.00192701  0.8232560 0.8500
 27 -26907.1707061624  -6.311558768055 0.28566086  0.00163774  0.6981351 0.8500
 28 -26912.9124171121  -5.741710949664 0.24229437  0.00139155  0.5920234 0.8500
 29 -26917.7885077842  -4.876090672129 0.20557993  0.00118250  0.5020581 0.8500
 30 -26921.8443698564  -4.055862072175 0.17457414  0.00100502  0.4257722 0.8500
 31 -26925.2709928921  -3.426623035753 0.14829623  0.00085423  0.3610762 0.8500
 32 -26928.2115115833  -2.940518691139 0.12595942  0.00072604  0.3062079 0.8500
 33 -26930.7400594815  -2.528547898277 0.10696796  0.00061708  0.2596769 0.8500
 34 -26932.9058381892  -2.165778707677 0.09083448  0.00052446  0.2202183 0.8500
 35 -26934.7546891874  -1.848850998202 0.07713742  0.00044575  0.1867575 0.8500
 36 -26936.3320564850  -1.577367297559 0.06550932  0.00037886  0.1583822 0.8500
 37 -26937.6788913653  -1.346834880267 0.05563547  0.00032201  0.1343192 0.8500
 38 -26938.8295881063  -1.150696741082 0.04724994  0.00027369  0.1139130 0.8500
 39 -26939.8127176132  -0.983129506843 0.04012829  0.00023263  0.0966078 0.8500
               *** Restarting incremental Fock matrix formation ***
                                   *** Resetting DIIS ***
 40 -26938.3589641679   1.453753445236 0.03668861  0.00020127  0.0819324 0.8500
 41 -26940.4244340662  -2.065469898236 0.02946382  0.00016833  0.0677771 0.8500
 42 -26941.7384361632  -1.314002097064 0.02410504  0.00014238  0.0566795 0.8500
 43 -26942.4360945921  -0.697658428868 0.02026580  0.00012115  0.0478126 0.8500
 44 -26942.8929672017  -0.456872609608 0.01723857  0.00010312  0.0405121 0.8500
 45 -26943.1740465077  -0.281079306023 0.01479475  0.00008775  0.0343896 0.8500
 46 -26943.4782355049  -0.304188997190 0.08414274  0.00049738  0.0291770 0.0000
 47 -26945.5449340493  -2.066698544379 0.00083349  0.00000755  0.0012175 0.0000
 48 -26945.5806391310  -0.035705081707 0.00031376  0.00000242  0.0008240 0.0000
 49 -26945.5509915460   0.029647584997 0.00010280  0.00000089  0.0000393 0.0000
 50 -26945.5506206459   0.000370900092 0.00002402  0.00000033  0.0000163 0.0000
 51 -26945.5513358223  -0.000715176360 0.00001217  0.00000020  0.0000089 0.0000
 52 -26945.5510831696   0.000252652721 0.00000294  0.00000008  0.0000033 0.0000
 53 -26945.5510983060  -0.000015136469 0.00000160  0.00000004  0.0000014 0.0000
                            ***DIIS convergence achieved***

               *****************************************************
               *                     SUCCESS                       *
               *           SCF CONVERGED AFTER  54 CYCLES          *
               *****************************************************


----------------
TOTAL SCF ENERGY
----------------

Total Energy       :       -26945.55114638 Eh         -733225.72317 eV

Components:
Nuclear Repulsion  :         1417.74805808 Eh           38578.88597 eV
Electronic Energy  :       -28363.29920447 Eh         -771804.60914 eV
One Electron Energy:       -39445.63554090 Eh        -1073370.31216 eV
Two Electron Energy:        11082.33633643 Eh          301565.70302 eV

Virial components:
Potential Energy   :       -74496.72890410 Eh        -2027159.05226 eV
Kinetic Energy     :        47551.17775771 Eh         1293933.32909 eV
Virial Ratio       :            1.56666422


---------------
SCF CONVERGENCE
---------------

  Last Energy change         ...   -4.8078e-05  Tolerance :   1.0000e-08
  Last MAX-Density change    ...    9.2821e-07  Tolerance :   1.0000e-07
  Last RMS-Density change    ...    1.8533e-08  Tolerance :   5.0000e-09
  Last DIIS Error            ...    9.4038e-07  Tolerance :   5.0000e-07

             **** THE GBW FILE WAS UPDATED (/home/nikolayandreadi_2125/_scratch/MP2/Th_CO3_2.gbw) ****
             **** DENSITY FILE WAS UPDATED (/home/nikolayandreadi_2125/_scratch/MP2/Th_CO3_2.scfp.tmp) ****
             **** ENERGY FILE WAS UPDATED (/home/nikolayandreadi_2125/_scratch/MP2/Th_CO3_2.en.tmp) ****
----------------
ORBITAL ENERGIES
----------------

  NO   OCC          E(Eh)            E(eV) 
   0   2.0000   -4041.168785   -109965.7932 
   1   2.0000    -756.829434    -20594.3759 
   2   2.0000    -639.263702    -17395.2497 
   3   2.0000    -639.263656    -17395.2484 
   4   2.0000    -639.263575    -17395.2462 
   5   2.0000    -192.854769     -5247.8451 
   6   2.0000    -159.354718     -4336.2623 
   7   2.0000    -159.354541     -4336.2575 
   8   2.0000    -159.353101     -4336.2183 
   9   2.0000    -126.826112     -3451.1140 
  10   2.0000    -126.825997     -3451.1108 
  11   2.0000    -126.825370     -3451.0938 
  12   2.0000    -126.825159     -3451.0880 
  13   2.0000    -126.824877     -3451.0804 
  14   2.0000     -50.186774     -1365.6516 
  15   2.0000     -38.974484     -1060.5496 
  16   2.0000     -38.974110     -1060.5395 
  17   2.0000     -38.971146     -1060.4588 
  18   2.0000     -26.531785      -721.9666 
  19   2.0000     -26.531576      -721.9609 
  20   2.0000     -26.529629      -721.9079 
  21   2.0000     -26.529266      -721.8980 
  22   2.0000     -26.528526      -721.8779 
  23   2.0000     -20.603956      -560.6621 
  24   2.0000     -20.603513      -560.6501 
  25   2.0000     -20.599915      -560.5522 
  26   2.0000     -20.599618      -560.5441 
  27   2.0000     -20.551982      -559.2479 
  28   2.0000     -20.551637      -559.2385 
  29   2.0000     -13.413938      -365.0118 
  30   2.0000     -13.413928      -365.0115 
  31   2.0000     -13.412109      -364.9620 
  32   2.0000     -13.412081      -364.9613 
  33   2.0000     -13.411047      -364.9331 
  34   2.0000     -13.410983      -364.9314 
  35   2.0000     -13.410446      -364.9168 
  36   2.0000     -11.590495      -315.3934 
  37   2.0000     -11.429673      -311.0172 
  38   2.0000     -11.429273      -311.0063 
  39   2.0000      -8.043920      -218.8862 
  40   2.0000      -8.043142      -218.8650 
  41   2.0000      -8.042959      -218.8600 
  42   2.0000      -3.858920      -105.0066 
  43   2.0000      -3.858838      -105.0043 
  44   2.0000      -3.858410      -104.9927 
  45   2.0000      -3.858077      -104.9836 
  46   2.0000      -3.857784      -104.9756 
  47   2.0000      -2.111479       -57.4563 
  48   2.0000      -1.505442       -40.9651 
  49   2.0000      -1.481658       -40.3180 
  50   2.0000      -1.379988       -37.5514 
  51   2.0000      -1.365354       -37.1532 
  52   2.0000      -1.358252       -36.9599 
  53   2.0000      -1.338660       -36.4268 
  54   2.0000      -1.134425       -30.8693 
  55   2.0000      -1.125079       -30.6150 
  56   2.0000      -1.107612       -30.1397 
  57   2.0000      -0.794297       -21.6139 
  58   2.0000      -0.788112       -21.4456 
  59   2.0000      -0.730505       -19.8781 
  60   2.0000      -0.695575       -18.9276 
  61   2.0000      -0.683863       -18.6088 
  62   2.0000      -0.673653       -18.3310 
  63   2.0000      -0.662466       -18.0266 
  64   2.0000      -0.661157       -17.9910 
  65   2.0000      -0.560565       -15.2538 
  66   2.0000      -0.527937       -14.3659 
  67   2.0000      -0.524222       -14.2648 
  68   2.0000      -0.521387       -14.1877 
  69   2.0000      -0.517917       -14.0932 
  70   2.0000      -0.507822       -13.8185 
  71   2.0000      -0.472520       -12.8579 
  72   2.0000      -0.469070       -12.7640 
  73   2.0000      -0.466734       -12.7005 
  74   2.0000      -0.457925       -12.4608 
  75   0.0000      -0.056491        -1.5372 
  76   0.0000       0.005805         0.1580 
  77   0.0000       0.021032         0.5723 
  78   0.0000       0.029519         0.8032 
  79   0.0000       0.036977         1.0062 
  80   0.0000       0.074603         2.0300 
  81   0.0000       0.095610         2.6017 
  82   0.0000       0.103860         2.8262 
  83   0.0000       0.122010         3.3201 
  84   0.0000       0.129978         3.5369 
  85   0.0000       0.138737         3.7752 
  86   0.0000       0.140076         3.8117 
  87   0.0000       0.144977         3.9450 
  88   0.0000       0.157947         4.2979 
  89   0.0000       0.158924         4.3246 
  90   0.0000       0.166920         4.5421 
  91   0.0000       0.170620         4.6428 
  92   0.0000       0.182668         4.9707 
  93   0.0000       0.185198         5.0395 
  94   0.0000       0.197440         5.3726 
  95   0.0000       0.217357         5.9146 
  96   0.0000       0.222818         6.0632 
  97   0.0000       0.246342         6.7033 
  98   0.0000       0.260962         7.1011 
  99   0.0000       0.317965         8.6523 
 100   0.0000       0.318928         8.6785 
 101   0.0000       0.340202         9.2574 
 102   0.0000       0.352538         9.5931 
 103   0.0000       0.354100         9.6356 
 104   0.0000       0.358935         9.7671 
 105   0.0000       0.361276         9.8308 
 106   0.0000       0.371856        10.1187 
 107   0.0000       0.390944        10.6381 
 108   0.0000       0.393143        10.6980 
 109   0.0000       0.412316        11.2197 
 110   0.0000       0.447508        12.1773 
 111   0.0000       0.447907        12.1882 
 112   0.0000       0.471289        12.8244 
 113   0.0000       0.483330        13.1521 
 114   0.0000       0.488269        13.2865 
 115   0.0000       0.497981        13.5507 
 116   0.0000       0.507775        13.8173 
 117   0.0000       0.522335        14.2135 
 118   0.0000       0.529225        14.4009 
 119   0.0000       0.561223        15.2716 
 120   0.0000       0.568948        15.4819 
 121   0.0000       0.575305        15.6548 
 122   0.0000       0.587967        15.9994 
 123   0.0000       0.623872        16.9764 
 124   0.0000       0.632425        17.2092 
 125   0.0000       0.639938        17.4136 
 126   0.0000       0.650345        17.6968 
 127   0.0000       0.665112        18.0986 
 128   0.0000       0.669232        18.2107 
 129   0.0000       0.687028        18.6950 
 130   0.0000       0.713222        19.4078 
 131   0.0000       0.720927        19.6174 
 132   0.0000       0.737237        20.0612 
 133   0.0000       0.742397        20.2016 
 134   0.0000       0.756444        20.5839 
 135   0.0000       0.775896        21.1132 
 136   0.0000       0.788133        21.4462 
 137   0.0000       0.790586        21.5129 
 138   0.0000       0.799404        21.7529 
 139   0.0000       0.818762        22.2796 
 140   0.0000       0.830691        22.6042 
 141   0.0000       0.838418        22.8145 
 142   0.0000       0.847176        23.0528 
 143   0.0000       0.857861        23.3436 
 144   0.0000       0.927648        25.2426 
 145   0.0000       0.933142        25.3921 
 146   0.0000       0.936072        25.4718 
 147   0.0000       0.941729        25.6257 
 148   0.0000       1.002397        27.2766 
 149   0.0000       1.035399        28.1746 
 150   0.0000       1.064148        28.9569 
 151   0.0000       1.074384        29.2355 
 152   0.0000       1.101440        29.9717 
 153   0.0000       1.114053        30.3149 
 154   0.0000       1.127073        30.6692 
 155   0.0000       1.130073        30.7509 
 156   0.0000       1.150995        31.3202 
 157   0.0000       1.182471        32.1767 
 158   0.0000       1.211778        32.9742 
 159   0.0000       1.217790        33.1378 
 160   0.0000       1.227534        33.4029 
 161   0.0000       1.254401        34.1340 
 162   0.0000       1.289612        35.0921 
 163   0.0000       1.308126        35.5959 
 164   0.0000       1.322267        35.9807 
 165   0.0000       1.370631        37.2968 
 166   0.0000       1.376453        37.4552 
 167   0.0000       1.541688        41.9515 
 168   0.0000       1.552587        42.2481 
 169   0.0000       1.573063        42.8052 
 170   0.0000       1.581790        43.0427 
 171   0.0000       1.593380        43.3581 
 172   0.0000       1.654938        45.0332 
 173   0.0000       1.661314        45.2066 
 174   0.0000       1.687215        45.9115 
 175   0.0000       1.732928        47.1554 
 176   0.0000       1.736122        47.2423 
 177   0.0000       1.768797        48.1314 
 178   0.0000       1.782349        48.5002 
 179   0.0000       1.784520        48.5593 
 180   0.0000       1.791682        48.7541 
 181   0.0000       1.896436        51.6047 
 182   0.0000       1.916797        52.1587 
 183   0.0000       1.930261        52.5251 
 184   0.0000       1.935898        52.6785 
 185   0.0000       1.996663        54.3320 
 186   0.0000       2.011358        54.7318 
 187   0.0000       2.032313        55.3021 
 188   0.0000       2.051010        55.8108 
 189   0.0000       2.085270        56.7431 
 190   0.0000       2.109512        57.4027 
 191   0.0000       2.113830        57.5202 
 192   0.0000       2.128620        57.9227 
 193   0.0000       2.147345        58.4322 
 194   0.0000       2.196536        59.7708 
 195   0.0000       2.222521        60.4779 
 196   0.0000       2.229605        60.6706 
 197   0.0000       2.254780        61.3557 
 198   0.0000       2.278074        61.9895 
 199   0.0000       2.281206        62.0748 
 200   0.0000       2.318195        63.0813 
 201   0.0000       2.321355        63.1673 
 202   0.0000       2.341532        63.7163 
 203   0.0000       2.347273        63.8726 
 204   0.0000       2.360772        64.2399 
 205   0.0000       2.369023        64.4644 
 206   0.0000       2.381554        64.8054 
 207   0.0000       2.449407        66.6518 
 208   0.0000       2.483289        67.5737 
 209   0.0000       2.524988        68.7084 
 210   0.0000       2.533299        68.9346 
 211   0.0000       2.581121        70.2359 
 212   0.0000       2.608678        70.9857 
 213   0.0000       2.618784        71.2607 
 214   0.0000       2.627411        71.4955 
 215   0.0000       2.642356        71.9022 
 216   0.0000       2.849064        77.5270 
 217   0.0000       2.853653        77.6518 
 218   0.0000       2.979718        81.0823 
 219   0.0000       2.982040        81.1454 
 220   0.0000       3.066143        83.4340 
 221   0.0000       3.069687        83.5304 
 222   0.0000       3.187968        86.7490 
 223   0.0000       3.201645        87.1212 
 224   0.0000       3.212081        87.4052 
 225   0.0000       3.225448        87.7689 
 226   0.0000       3.245771        88.3219 
 227   0.0000       3.252299        88.4995 
 228   0.0000       3.264047        88.8192 
 229   0.0000       3.296872        89.7124 
 230   0.0000       3.300670        89.8158 
 231   0.0000       3.313472        90.1642 
 232   0.0000       3.316350        90.2425 
 233   0.0000       3.322395        90.4070 
 234   0.0000       3.348823        91.1261 
 235   0.0000       3.353613        91.2564 
 236   0.0000       3.459696        94.1431 
 237   0.0000       3.485454        94.8440 
 238   0.0000       3.487810        94.9081 
 239   0.0000       3.545029        96.4651 
 240   0.0000       3.570752        97.1651 
 241   0.0000       3.595794        97.8465 
 242   0.0000       3.601452        98.0005 
 243   0.0000       3.613913        98.3396 
 244   0.0000       3.656571        99.5004 
 245   0.0000       3.660753        99.6141 
 246   0.0000       3.668059        99.8130 
 247   0.0000       3.673247        99.9541 
 248   0.0000       3.692380       100.4748 
 249   0.0000       3.700914       100.7070 
 250   0.0000       3.708717       100.9193 
 251   0.0000       3.722624       101.2978 
 252   0.0000       3.743429       101.8639 
 253   0.0000       3.752291       102.1050 
 254   0.0000       3.801836       103.4532 
 255   0.0000       3.830367       104.2296 
 256   0.0000       3.865001       105.1720 
 257   0.0000       3.884814       105.7112 
 258   0.0000       3.887140       105.7744 
 259   0.0000       3.923999       106.7774 
 260   0.0000       3.958667       107.7208 
 261   0.0000       3.995987       108.7363 
 262   0.0000       4.083853       111.1273 
 263   0.0000       4.128321       112.3373 
 264   0.0000       4.130290       112.3909 
 265   0.0000       4.247965       115.5930 
 266   0.0000       4.350830       118.3921 
 267   0.0000       4.684933       127.4835 
 268   0.0000       4.692067       127.6776 
 269   0.0000       4.779667       130.0614 
 270   0.0000       4.805349       130.7602 
 271   0.0000       4.816035       131.0510 
 272   0.0000       4.843742       131.8049 
 273   0.0000       5.522002       150.2613 
 274   0.0000       5.526334       150.3792 
 275   0.0000       5.541504       150.7920 
 276   0.0000       5.554791       151.1535 
 277   0.0000       5.557950       151.2395 
 278   0.0000       5.583286       151.9289 
 279   0.0000       5.599647       152.3741 
 280   0.0000       5.600571       152.3993 
 281   0.0000       5.605415       152.5311 
 282   0.0000       5.640243       153.4788 
 283   0.0000       5.643264       153.5610 
 284   0.0000       5.656473       153.9205 
 285   0.0000       5.669254       154.2682 
 286   0.0000       5.693692       154.9332 
 287   0.0000       5.807276       158.0240 
 288   0.0000       5.808450       158.0560 
 289   0.0000       5.818285       158.3236 
 290   0.0000       5.839161       158.8917 
 291   0.0000       5.851467       159.2265 
 292   0.0000       5.853321       159.2770 
 293   0.0000       5.862500       159.5267 
 294   0.0000       5.866939       159.6475 
 295   0.0000       5.947427       161.8377 
 296   0.0000       5.952102       161.9649 
 297   0.0000       6.026026       163.9765 
 298   0.0000       6.035784       164.2420 
 299   0.0000       6.113213       166.3490 
 300   0.0000       6.115867       166.4212 
 301   0.0000       6.205960       168.8728 
 302   0.0000       6.253864       170.1763 
 303   0.0000       6.373951       173.4440 
 304   0.0000       6.378074       173.5562 
 305   0.0000       6.522069       177.4745 
 306   0.0000       6.524935       177.5525 
 307   0.0000       6.641478       180.7238 
 308   0.0000       6.644988       180.8193 
 309   0.0000       6.694026       182.1537 
 310   0.0000       6.705768       182.4732 
 311   0.0000       6.818508       185.5410 
 312   0.0000       6.842216       186.1862 
 313   0.0000       6.866134       186.8370 
 314   0.0000       6.873078       187.0260 
 315   0.0000       6.918320       188.2571 
 316   0.0000       6.925901       188.4634 
 317   0.0000       6.950312       189.1276 
 318   0.0000       6.952711       189.1929 
 319   0.0000       6.990408       190.2187 
 320   0.0000       7.013444       190.8455 
 321   0.0000       7.097669       193.1374 
 322   0.0000       7.108029       193.4193 
 323   0.0000       7.137791       194.2292 
 324   0.0000       7.149786       194.5556 
 325   0.0000       7.189405       195.6337 
 326   0.0000       7.192163       195.7087 
 327   0.0000       7.221140       196.4972 
 328   0.0000       7.228123       196.6872 
 329   0.0000       7.229851       196.7343 
 330   0.0000       7.234611       196.8638 
 331   0.0000       7.330405       199.4705 
 332   0.0000       7.333976       199.5676 
 333   0.0000       7.369595       200.5369 
 334   0.0000       7.391026       201.1200 
 335   0.0000       7.432268       202.2423 
 336   0.0000       7.453028       202.8072 
 337   0.0000       7.612729       207.1529 
 338   0.0000       7.631534       207.6646 
 339   0.0000       7.653973       208.2752 
 340   0.0000       7.658079       208.3869 
 341   0.0000       7.707577       209.7338 
 342   0.0000       7.721669       210.1173 
 343   0.0000       7.808479       212.4795 
 344   0.0000       7.813653       212.6203 
 345   0.0000       8.214672       223.5326 
 346   0.0000       8.298209       225.8058 
 347   0.0000       8.643759       235.2086 
 348   0.0000       8.930247       243.0044 
 349   0.0000       8.952850       243.6194 
 350   0.0000       9.127472       248.3711 
 351   0.0000       9.165567       249.4078 
 352   0.0000       9.278634       252.4845 
 353   0.0000       9.660038       262.8630 
 354   0.0000       9.675122       263.2734 
 355   0.0000       9.809711       266.9358 
 356   0.0000      12.924973       351.7064 
 357   0.0000      12.925326       351.7160 
 358   0.0000      12.981257       353.2380 
 359   0.0000      13.011891       354.0716 
 360   0.0000      13.026070       354.4574 
 361   0.0000      13.056702       355.2909 
 362   0.0000      13.104986       356.6048 
 363   0.0000      15.412525       419.3961 
 364   0.0000      15.468313       420.9142 
 365   0.0000      15.522094       422.3777 
 366   0.0000      15.530803       422.6146 
 367   0.0000      15.578081       423.9011 
 368   0.0000      15.598831       424.4658 
 369   0.0000      40.984723      1115.2510 
 370   0.0000      41.003680      1115.7669 
 371   0.0000      44.078006      1199.4235 
 372   0.0000      45.473550      1237.3982 
 373   0.0000      45.484141      1237.6864 
 374   0.0000      45.575252      1240.1657 
 375   0.0000      45.582762      1240.3700 
 376   0.0000      45.653863      1242.3048 
 377   0.0000      46.810203      1273.7704 
 378   0.0000      46.902710      1276.2876 
 379   0.0000      47.113511      1282.0238 
 380   0.0000      49.430956      1345.0847 
 381   0.0000      49.431070      1345.0878 
 382   0.0000      49.459535      1345.8624 
 383   0.0000      49.475936      1346.3087 
 384   0.0000      49.481918      1346.4714 
 385   0.0000      49.499260      1346.9433 
 386   0.0000      49.523075      1347.5914 
 387   0.0000      79.058169      2151.2822 
 388   0.0000      79.113633      2152.7914 
 389   0.0000      79.169695      2154.3169 
 390   0.0000      79.176022      2154.4891 
 391   0.0000      79.184777      2154.7273 
 392   0.0000      79.204051      2155.2518 
 393   0.0000     201.531903      5483.9619 
 394   0.0000     226.075265      6151.8207 
 395   0.0000     226.081680      6151.9953 
 396   0.0000     226.134206      6153.4246 
 397   0.0000     226.140224      6153.5883 
 398   0.0000     226.178595      6154.6325 
 399   0.0000     256.650730      6983.8214 
 400   0.0000     256.705373      6985.3083 
 401   0.0000     256.851275      6989.2785 
 402   0.0000     773.342172     21043.7104 
 403   0.0000    1049.109347     28547.7167 
 404   0.0000    1049.146759     28548.7347 
 405   0.0000    1049.245942     28551.4336 
 406   0.0000    2368.488370     64449.8451 
 407   0.0000    3665.865498     99753.2716 
 408   0.0000    3665.891449     99753.9777 
 409   0.0000    3665.960181     99755.8480 
 410   0.0000    5948.348803    161862.7999 
 411   0.0000   12744.777679    346803.0318 
 412   0.0000   24443.732046    665147.7644 
 413   0.0000   43246.222269   1176789.5348 
 414   0.0000   83574.347536   2274173.6132 

                    ********************************
                    * MULLIKEN POPULATION ANALYSIS *
                    ********************************

-----------------------
MULLIKEN ATOMIC CHARGES
-----------------------
   0 C :    0.780336
   1 O :   -0.756388
   2 O :   -0.743643
   3 O :   -0.481232
   4 Th:    2.402999
   5 C :    0.780552
   6 O :   -0.753942
   7 O :   -0.746077
   8 O :   -0.482606
Sum of atomic charges:   -0.0000000

--------------------------------
MULLIKEN REDUCED ORBITAL CHARGES
--------------------------------
  0 C s       :     2.909833  s :     2.909833
      pz      :     0.668927  p :     1.963856
      px      :     0.637786
      py      :     0.657144
      dz2     :     0.064178  d :     0.312398
      dxz     :     0.072042
      dyz     :     0.051734
      dx2y2   :     0.071279
      dxy     :     0.053165
      f0      :     0.004344  f :     0.033577
      f+1     :     0.007708
      f-1     :     0.004490
      f+2     :     0.004679
      f-2     :     0.004334
      f+3     :     0.004838
      f-3     :     0.003183
  1 O s       :     3.951384  s :     3.951384
      pz      :     1.407610  p :     4.775911
      px      :     1.640064
      py      :     1.728237
      dz2     :     0.011223  d :     0.027796
      dxz     :     0.005916
      dyz     :     0.004884
      dx2y2   :     0.002804
      dxy     :     0.002969
      f0      :     0.000307  f :     0.001296
      f+1     :     0.000421
      f-1     :     0.000222
      f+2     :     0.000130
      f-2     :     0.000115
      f+3     :     0.000035
      f-3     :     0.000067
  2 O s       :     3.952073  s :     3.952073
      pz      :     1.665704  p :     4.762064
      px      :     1.518852
      py      :     1.577508
      dz2     :     0.004688  d :     0.028239
      dxz     :     0.009135
      dyz     :     0.007325
      dx2y2   :     0.002417
      dxy     :     0.004675
      f0      :     0.000133  f :     0.001267
      f+1     :     0.000120
      f-1     :     0.000122
      f+2     :     0.000129
      f-2     :     0.000326
      f+3     :     0.000211
      f-3     :     0.000226
  3 O s       :     3.915470  s :     3.915470
      pz      :     1.673908  p :     4.526288
      px      :     1.346871
      py      :     1.505509
      dz2     :     0.004859  d :     0.037054
      dxz     :     0.008318
      dyz     :     0.003900
      dx2y2   :     0.010881
      dxy     :     0.009096
      f0      :     0.000232  f :     0.002420
      f+1     :     0.000464
      f-1     :     0.000109
      f+2     :     0.000356
      f-2     :     0.000385
      f+3     :     0.000509
      f-3     :     0.000364
  4 Ths       :    12.235441  s :    12.235441
      pz      :     9.982000  p :    29.929284
      px      :     9.960150
      py      :     9.987134
      dz2     :     6.166542  d :    30.917572
      dxz     :     6.258684
      dyz     :     6.086917
      dx2y2   :     6.150151
      dxy     :     6.255279
      f0      :     2.055678  f :    14.514703
      f+1     :     2.094017
      f-1     :     2.026129
      f+2     :     2.067899
      f-2     :     2.078030
      f+3     :     2.085146
      f-3     :     2.107805
  5 C s       :     2.910350  s :     2.910350
      pz      :     0.663453  p :     1.963445
      px      :     0.626445
      py      :     0.673547
      dz2     :     0.036743  d :     0.312154
      dxz     :     0.073100
      dyz     :     0.039414
      dx2y2   :     0.077865
      dxy     :     0.085032
      f0      :     0.002355  f :     0.033500
      f+1     :     0.004183
      f-1     :     0.002442
      f+2     :     0.004960
      f-2     :     0.004078
      f+3     :     0.007114
      f-3     :     0.008368
  6 O s       :     3.950147  s :     3.950147
      pz      :     1.711222  p :     4.774613
      px      :     1.616387
      py      :     1.447005
      dz2     :     0.004969  d :     0.027887
      dxz     :     0.003061
      dyz     :     0.005120
      dx2y2   :     0.007910
      dxy     :     0.006827
      f0      :     0.000142  f :     0.001295
      f+1     :     0.000085
      f-1     :     0.000213
      f+2     :     0.000130
      f-2     :     0.000154
      f+3     :     0.000381
      f-3     :     0.000189
  7 O s       :     3.953651  s :     3.953651
      pz      :     1.620705  p :     4.763055
      px      :     1.513120
      py      :     1.629230
      dz2     :     0.003228  d :     0.028109
      dxz     :     0.003763
      dyz     :     0.007202
      dx2y2   :     0.003790
      dxy     :     0.010126
      f0      :     0.000165  f :     0.001262
      f+1     :     0.000180
      f-1     :     0.000121
      f+2     :     0.000161
      f-2     :     0.000329
      f+3     :     0.000114
      f-3     :     0.000191
  8 O s       :     3.915658  s :     3.915658
      pz      :     1.508302  p :     4.527548
      px      :     1.313371
      py      :     1.705875
      dz2     :     0.004381  d :     0.036986
      dxz     :     0.011180
      dyz     :     0.001853
      dx2y2   :     0.010641
      dxy     :     0.008931
      f0      :     0.000204  f :     0.002414
      f+1     :     0.000380
      f-1     :     0.000053
      f+2     :     0.000381
      f-2     :     0.000227
      f+3     :     0.000610
      f-3     :     0.000558


                     *******************************
                     * LOEWDIN POPULATION ANALYSIS *
                     *******************************

----------------------
LOEWDIN ATOMIC CHARGES
----------------------
   0 C :   -0.566662
   1 O :   -0.055599
   2 O :   -0.048159
   3 O :    0.075725
   4 Th:    1.190385
   5 C :   -0.563987
   6 O :   -0.054652
   7 O :   -0.050799
   8 O :    0.073748

-------------------------------
LOEWDIN REDUCED ORBITAL CHARGES
-------------------------------
  0 C s       :     2.713228  s :     2.713228
      pz      :     0.840807  p :     2.483273
      px      :     0.895142
      py      :     0.747324
      dz2     :     0.259842  d :     1.161187
      dxz     :     0.300720
      dyz     :     0.182570
      dx2y2   :     0.207579
      dxy     :     0.210475
      f0      :     0.026411  f :     0.208974
      f+1     :     0.050459
      f-1     :     0.030339
      f+2     :     0.031198
      f-2     :     0.023734
      f+3     :     0.023256
      f-3     :     0.023577
  1 O s       :     3.373131  s :     3.373131
      pz      :     1.448267  p :     4.613207
      px      :     1.562113
      py      :     1.602827
      dz2     :     0.024699  d :     0.065056
      dxz     :     0.012634
      dyz     :     0.010899
      dx2y2   :     0.006202
      dxy     :     0.010622
      f0      :     0.000969  f :     0.004204
      f+1     :     0.001230
      f-1     :     0.000821
      f+2     :     0.000457
      f-2     :     0.000295
      f+3     :     0.000099
      f-3     :     0.000333
  2 O s       :     3.373824  s :     3.373824
      pz      :     1.620613  p :     4.603931
      px      :     1.478663
      py      :     1.504655
      dz2     :     0.008085  d :     0.066223
      dxz     :     0.022878
      dyz     :     0.013141
      dx2y2   :     0.009668
      dxy     :     0.012451
      f0      :     0.000357  f :     0.004181
      f+1     :     0.000789
      f-1     :     0.000497
      f+2     :     0.000578
      f-2     :     0.000868
      f+3     :     0.000494
      f-3     :     0.000599
  3 O s       :     3.397795  s :     3.397795
      pz      :     1.569581  p :     4.456761
      px      :     1.455657
      py      :     1.431523
      dz2     :     0.008383  d :     0.063824
      dxz     :     0.017568
      dyz     :     0.005336
      dx2y2   :     0.016085
      dxy     :     0.016452
      f0      :     0.000693  f :     0.005895
      f+1     :     0.001016
      f-1     :     0.000218
      f+2     :     0.000913
      f-2     :     0.000988
      f+3     :     0.000876
      f-3     :     0.001191
  4 Ths       :    12.077985  s :    12.077985
      pz      :    10.014459  p :    30.009582
      px      :     9.977814
      py      :    10.017309
      dz2     :     6.280275  d :    31.566725
      dxz     :     6.436103
      dyz     :     6.134107
      dx2y2   :     6.266563
      dxy     :     6.449677
      f0      :     2.121290  f :    15.155323
      f+1     :     2.215261
      f-1     :     2.063432
      f+2     :     2.156967
      f-2     :     2.173018
      f+3     :     2.190046
      f-3     :     2.235309
  5 C s       :     2.713935  s :     2.713935
      pz      :     0.720226  p :     2.482538
      px      :     0.938011
      py      :     0.824301
      dz2     :     0.137373  d :     1.159201
      dxz     :     0.234208
      dyz     :     0.148674
      dx2y2   :     0.296674
      dxy     :     0.342271
      f0      :     0.015507  f :     0.208313
      f+1     :     0.022825
      f-1     :     0.015308
      f+2     :     0.033881
      f-2     :     0.023357
      f+3     :     0.043768
      f-3     :     0.053668
  6 O s       :     3.372888  s :     3.372888
      pz      :     1.589769  p :     4.612060
      px      :     1.550940
      py      :     1.471352
      dz2     :     0.007671  d :     0.065493
      dxz     :     0.011035
      dyz     :     0.010594
      dx2y2   :     0.021554
      dxy     :     0.014639
      f0      :     0.000411  f :     0.004210
      f+1     :     0.000252
      f-1     :     0.000453
      f+2     :     0.000641
      f-2     :     0.000428
      f+3     :     0.001044
      f-3     :     0.000980
  7 O s       :     3.375697  s :     3.375697
      pz      :     1.526058  p :     4.605583
      px      :     1.479581
      py      :     1.599945
      dz2     :     0.008607  d :     0.065386
      dxz     :     0.010527
      dyz     :     0.012191
      dx2y2   :     0.009479
      dxy     :     0.024582
      f0      :     0.000397  f :     0.004133
      f+1     :     0.000446
      f-1     :     0.000320
      f+2     :     0.000587
      f-2     :     0.000884
      f+3     :     0.000709
      f-3     :     0.000791
  8 O s       :     3.398447  s :     3.398447
      pz      :     1.413448  p :     4.458206
      px      :     1.470852
      py      :     1.573906
      dz2     :     0.008136  d :     0.063725
      dxz     :     0.015428
      dyz     :     0.002212
      dx2y2   :     0.021626
      dxy     :     0.016323
      f0      :     0.000516  f :     0.005874
      f+1     :     0.000898
      f-1     :     0.000124
      f+2     :     0.000857
      f-2     :     0.000473
      f+3     :     0.001490
      f-3     :     0.001515


                      *****************************
                      * MAYER POPULATION ANALYSIS *
                      *****************************

  NA   - Mulliken gross atomic population
  ZA   - Total nuclear charge
  QA   - Mulliken gross atomic charge
  VA   - Mayer's total valence
  BVA  - Mayer's bonded valence
  FA   - Mayer's free valence

  ATOM       NA         ZA         QA         VA         BVA        FA
  0 C      5.2197     6.0000     0.7803     4.0221     4.0221     0.0000
  1 O      8.7564     8.0000    -0.7564     1.4970     1.4970     0.0000
  2 O      8.7436     8.0000    -0.7436     1.5226     1.5226    -0.0000
  3 O      8.4812     8.0000    -0.4812     1.9318     1.9318    -0.0000
  4 Th    87.5970    90.0000     2.4030     1.8372     1.8372     0.0000
  5 C      5.2194     6.0000     0.7806     4.0213     4.0213    -0.0000
  6 O      8.7539     8.0000    -0.7539     1.5007     1.5007    -0.0000
  7 O      8.7461     8.0000    -0.7461     1.5264     1.5264     0.0000
  8 O      8.4826     8.0000    -0.4826     1.9303     1.9303    -0.0000

  Mayer bond orders larger than 0.1
B(  0-C ,  1-O ) :   1.0753 B(  0-C ,  2-O ) :   1.0419 B(  0-C ,  3-O ) :   1.9493 
B(  1-O ,  4-Th) :   0.4484 B(  2-O ,  4-Th) :   0.5099 B(  4-Th,  6-O ) :   0.4540 
B(  4-Th,  7-O ) :   0.5104 B(  5-C ,  6-O ) :   1.0734 B(  5-C ,  7-O ) :   1.0440 
B(  5-C ,  8-O ) :   1.9478 

-------
TIMINGS
-------

Total SCF time: 0 days 0 hours 3 min 48 sec 

Total time                  ....     228.891 sec
Sum of individual times     ....     227.978 sec  ( 99.6%)

Fock matrix formation       ....     220.003 sec  ( 96.1%)
Diagonalization             ....       4.845 sec  (  2.1%)
Density matrix formation    ....       0.129 sec  (  0.1%)
Population analysis         ....       0.124 sec  (  0.1%)
Initial guess               ....       0.086 sec  (  0.0%)
Orbital Transformation      ....       0.000 sec  (  0.0%)
Orbital Orthonormalization  ....       0.000 sec  (  0.0%)
DIIS solution               ....       2.792 sec  (  1.2%)


           ************************************************************
           *        Program running with 20 parallel MPI-processes    *
           *              working on a common directory               *
           ************************************************************

------------------------------------------------------------------------------
                                ORCA  MP2 
------------------------------------------------------------------------------

Freezing NCore=84 chemical core electrons
MP2 will be done in the AO integral direct mode
The Q1-step will be done using symmetric double matrices
Dimension of the basis                    ...  415
Memory devoted for MP2                    ... 31500 MB   
Memory needed for all in one shot         ...  548 MB
Number of MOs that can be treated together...  114      
MP2 density construction                  ... relaxed
The MP2 gradient is requested => amplitudes will be stored on disk
Total number of MOs              ...   33
Number of MOs treated per batch  ...    2 
Number of batches necessary      ...    1 
OPERATORS   0/  0 PASS   0
-----------------------------------------------
 MP2 CORRELATION ENERGY   :     -2.473753470 Eh
-----------------------------------------------


---------------------
MP2 DENSITY FORMATION
---------------------

Completing the external part of the density      ... done
Storing the unrelaxed density                    ... done

Calculating G(D)                                 ... done
Completing the Lagrangian                        ... done
Solving the Z-vector equations                   ... 

------------------------------------------------------------------------------
                           ORCA CP-SCF CALCULATION
------------------------------------------------------------------------------

Input orbitals are from        ... /home/nikolayandreadi_2125/_scratch/MP2/Th_CO3_2.gbw
Input Perturbation             ... /home/nikolayandreadi_2125/_scratch/MP2/Th_CO3_2.pin.tmp
Wavefunction output            ... /home/nikolayandreadi_2125/_scratch/MP2/Th_CO3_2.pout.tmp
Perturbation mode              ... Real perturbation
Solver                         ... DIIS
   MaxDIIS                     ... 20
   Levelshift                  ...    3.000e-01 Eh
Max. number of iterations      ... 5000
Convergence tolerance          ... 1.000e-08
Integral handling              ... Direct
Number of perturbations        ... 1
Number of operators            ... 1
Orbital ranges used for CP-SCF:
 Operator 0:  Orbitals   0... 74  to  75...414
Variables per vector in CP-SCF ... 25500
Number of vectors sought       ... 1

Solving the CP-SCF equations by a DIIS algorithm

-----------------
CP-SCF ITERATIONS
-----------------
  Iteration   0: MaxR=  0.496881926
  Iteration   1: MaxR=  0.254032792
  Iteration   2: MaxR=  0.096622717
  Iteration   3: MaxR=  0.039021345
  Iteration   4: MaxR=  0.011186473
  Iteration   5: MaxR=  0.004062137
  Iteration   6: MaxR=  0.001566287
  Iteration   7: MaxR=  0.000635849
  Iteration   8: MaxR=  0.000230767
  Iteration   9: MaxR=  0.000082149
  Iteration  10: MaxR=  0.000028542
  Iteration  11: MaxR=  0.000010498
  Iteration  12: MaxR=  0.000004069
  Iteration  13: MaxR=  0.000001626
  Iteration  14: MaxR=  0.000000528
  Iteration  15: MaxR=  0.000000177
  Iteration  16: MaxR=  0.000000072
  Iteration  17: MaxR=  0.000000030
  Iteration  18: MaxR=  0.000000012
  Iteration  19: MaxR=  0.000000005
                              *** THE CP-SCF HAS CONVERGED *** 
                                                 ... done
Finalizing the relaxed density                   ... done
Transforming P to the AO basis                   ... done
Storing the relaxed density                      ... done

------------------------------------
ENERGY WEIGHTED DENSITY FINALIZATION
------------------------------------

Gathering the parts of the W-matrix              ...                                                      done
Forming the Z-density                            ... done
Transforming Z to the AO basis                   ... done
Calculating G(Z)                                 ... done
Finalizing the W-matrix                          ...                                                      done
Transforming W to the AO basis and storing       ... done

                *********************************************
                * UNRELAXED MP2 DENSITY POPULATION ANALYSIS *
                *********************************************

------------------------------------------------------------------------------
                           ORCA POPULATION ANALYSIS
------------------------------------------------------------------------------
Input electron density              ... /home/nikolayandreadi_2125/_scratch/MP2/Th_CO3_2.pmp2ur
BaseName (.gbw .S,...)              ... /home/nikolayandreadi_2125/_scratch/MP2/Th_CO3_2

                    ********************************
                    * MULLIKEN POPULATION ANALYSIS *
                    ********************************

-----------------------
MULLIKEN ATOMIC CHARGES
-----------------------
   0 C :    0.735459
   1 O :   -0.729920
   2 O :   -0.716518
   3 O :   -0.457076
   4 Th:    2.337185
   5 C :    0.735569
   6 O :   -0.727336
   7 O :   -0.718944
   8 O :   -0.458420
Sum of atomic charges:   -0.0000000

--------------------------------
MULLIKEN REDUCED ORBITAL CHARGES
--------------------------------
  0 C s       :     2.914454  s :     2.914454
      pz      :     0.675992  p :     1.988572
      px      :     0.643726
      py      :     0.668854
      dz2     :     0.066803  d :     0.324964
      dxz     :     0.074460
      dyz     :     0.054600
      dx2y2   :     0.073794
      dxy     :     0.055307
      f0      :     0.004829  f :     0.036551
      f+1     :     0.008180
      f-1     :     0.004905
      f+2     :     0.005154
      f-2     :     0.004714
      f+3     :     0.005148
      f-3     :     0.003620
  1 O s       :     3.944875  s :     3.944875
      pz      :     1.393982  p :     4.722637
      px      :     1.620587
      py      :     1.708068
      dz2     :     0.016860  d :     0.058303
      dxz     :     0.012140
      dyz     :     0.010808
      dx2y2   :     0.009192
      dxy     :     0.009303
      f0      :     0.000728  f :     0.004105
      f+1     :     0.000829
      f-1     :     0.000631
      f+2     :     0.000525
      f-2     :     0.000515
      f+3     :     0.000423
      f-3     :     0.000454
  2 O s       :     3.945578  s :     3.945578
      pz      :     1.646733  p :     4.708016
      px      :     1.501466
      py      :     1.559817
      dz2     :     0.010901  d :     0.058841
      dxz     :     0.015265
      dyz     :     0.013122
      dx2y2   :     0.008766
      dxy     :     0.010787
      f0      :     0.000542  f :     0.004084
      f+1     :     0.000544
      f-1     :     0.000527
      f+2     :     0.000543
      f-2     :     0.000727
      f+3     :     0.000594
      f-3     :     0.000607
  3 O s       :     3.908738  s :     3.908738
      pz      :     1.656778  p :     4.480114
      px      :     1.334476
      py      :     1.488860
      dz2     :     0.010327  d :     0.063127
      dxz     :     0.013581
      dyz     :     0.009229
      dx2y2   :     0.015838
      dxy     :     0.014153
      f0      :     0.000602  f :     0.005097
      f+1     :     0.000867
      f-1     :     0.000467
      f+2     :     0.000737
      f-2     :     0.000765
      f+3     :     0.000905
      f-3     :     0.000754
  4 Ths       :    12.228053  s :    12.228053
      pz      :     9.954503  p :    29.846441
      px      :     9.932317
      py      :     9.959621
      dz2     :     6.174333  d :    30.956391
      dxz     :     6.266401
      dyz     :     6.094040
      dx2y2   :     6.158758
      dxy     :     6.262858
      f0      :     2.072039  f :    14.631930
      f+1     :     2.111230
      f-1     :     2.041500
      f+2     :     2.084414
      f-2     :     2.095056
      f+3     :     2.102362
      f-3     :     2.125328
  5 C s       :     2.914970  s :     2.914970
      pz      :     0.676443  p :     1.988261
      px      :     0.630575
      py      :     0.681242
      dz2     :     0.039409  d :     0.324730
      dxz     :     0.075043
      dyz     :     0.042285
      dx2y2   :     0.080979
      dxy     :     0.087015
      f0      :     0.002671  f :     0.036470
      f+1     :     0.004559
      f-1     :     0.002776
      f+2     :     0.005400
      f-2     :     0.004493
      f+3     :     0.007637
      f-3     :     0.008933
  6 O s       :     3.943628  s :     3.943628
      pz      :     1.691125  p :     4.721157
      px      :     1.597431
      py      :     1.432601
      dz2     :     0.011035  d :     0.058444
      dxz     :     0.009438
      dyz     :     0.010995
      dx2y2   :     0.013960
      dxy     :     0.013017
      f0      :     0.000531  f :     0.004106
      f+1     :     0.000474
      f-1     :     0.000608
      f+2     :     0.000535
      f-2     :     0.000556
      f+3     :     0.000790
      f-3     :     0.000612
  7 O s       :     3.947154  s :     3.947154
      pz      :     1.602157  p :     4.709084
      px      :     1.495937
      py      :     1.610990
      dz2     :     0.009340  d :     0.058634
      dxz     :     0.009965
      dyz     :     0.012985
      dx2y2   :     0.010149
      dxy     :     0.016195
      f0      :     0.000549  f :     0.004072
      f+1     :     0.000565
      f-1     :     0.000523
      f+2     :     0.000555
      f-2     :     0.000730
      f+3     :     0.000539
      f-3     :     0.000612
  8 O s       :     3.908923  s :     3.908923
      pz      :     1.491110  p :     4.481336
      px      :     1.302158
      py      :     1.688068
      dz2     :     0.009588  d :     0.063070
      dxz     :     0.016249
      dyz     :     0.007258
      dx2y2   :     0.015629
      dxy     :     0.014346
      f0      :     0.000567  f :     0.005090
      f+1     :     0.000772
      f-1     :     0.000397
      f+2     :     0.000762
      f-2     :     0.000609
      f+3     :     0.001016
      f-3     :     0.000967


                     *******************************
                     * LOEWDIN POPULATION ANALYSIS *
                     *******************************

----------------------
LOEWDIN ATOMIC CHARGES
----------------------
   0 C :   -0.587472
   1 O :   -0.038465
   2 O :   -0.030289
   3 O :    0.090327
   4 Th:    1.132750
   5 C :   -0.584963
   6 O :   -0.037426
   7 O :   -0.032851
   8 O :    0.088389

-------------------------------
LOEWDIN REDUCED ORBITAL CHARGES
-------------------------------
  0 C s       :     2.715306  s :     2.715306
      pz      :     0.842937  p :     2.494651
      px      :     0.896582
      py      :     0.755133
      dz2     :     0.259637  d :     1.162552
      dxz     :     0.300271
      dyz     :     0.183537
      dx2y2   :     0.207508
      dxy     :     0.211599
      f0      :     0.027739  f :     0.214962
      f+1     :     0.051120
      f-1     :     0.030547
      f+2     :     0.031616
      f-2     :     0.025331
      f+3     :     0.024159
      f-3     :     0.024451
  1 O s       :     3.369485  s :     3.369485
      pz      :     1.433826  p :     4.563311
      px      :     1.544550
      py      :     1.584935
      dz2     :     0.031569  d :     0.098282
      dxz     :     0.019505
      dyz     :     0.017301
      dx2y2   :     0.012708
      dxy     :     0.017199
      f0      :     0.001497  f :     0.007387
      f+1     :     0.001750
      f-1     :     0.001290
      f+2     :     0.000875
      f-2     :     0.000737
      f+3     :     0.000499
      f-3     :     0.000739
  2 O s       :     3.370146  s :     3.370146
      pz      :     1.603105  p :     4.553301
      px      :     1.462163
      py      :     1.488033
      dz2     :     0.014600  d :     0.099481
      dxz     :     0.029730
      dyz     :     0.019621
      dx2y2   :     0.016193
      dxy     :     0.019337
      f0      :     0.000817  f :     0.007362
      f+1     :     0.001249
      f-1     :     0.000927
      f+2     :     0.001035
      f-2     :     0.001375
      f+3     :     0.000929
      f-3     :     0.001029
  3 O s       :     3.393665  s :     3.393665
      pz      :     1.554477  p :     4.412788
      px      :     1.441835
      py      :     1.416476
      dz2     :     0.014267  d :     0.093922
      dxz     :     0.023750
      dyz     :     0.011053
      dx2y2   :     0.022298
      dxy     :     0.022554
      f0      :     0.001132  f :     0.009297
      f+1     :     0.001525
      f-1     :     0.000596
      f+2     :     0.001400
      f-2     :     0.001495
      f+3     :     0.001423
      f-3     :     0.001727
  4 Ths       :    12.072428  s :    12.072428
      pz      :     9.987921  p :    29.929344
      px      :     9.950682
      py      :     9.990741
      dz2     :     6.287154  d :    31.598601
      dxz     :     6.441617
      dyz     :     6.141418
      dx2y2   :     6.273358
      dxy     :     6.455054
      f0      :     2.137121  f :    15.266877
      f+1     :     2.231335
      f-1     :     2.078667
      f+2     :     2.172756
      f-2     :     2.189185
      f+3     :     2.206234
      f-3     :     2.251578
  5 C s       :     2.716026  s :     2.716026
      pz      :     0.729453  p :     2.494023
      px      :     0.937501
      py      :     0.827069
      dz2     :     0.139351  d :     1.160615
      dxz     :     0.233805
      dyz     :     0.150372
      dx2y2   :     0.296337
      dxy     :     0.340750
      f0      :     0.016307  f :     0.214299
      f+1     :     0.023625
      f-1     :     0.015873
      f+2     :     0.034227
      f-2     :     0.024779
      f+3     :     0.045195
      f-3     :     0.054295
  6 O s       :     3.369243  s :     3.369243
      pz      :     1.571923  p :     4.562035
      px      :     1.533644
      py      :     1.456468
      dz2     :     0.014245  d :     0.098754
      dxz     :     0.017639
      dyz     :     0.017019
      dx2y2   :     0.028206
      dxy     :     0.021646
      f0      :     0.000838  f :     0.007394
      f+1     :     0.000662
      f-1     :     0.000904
      f+2     :     0.001084
      f-2     :     0.000882
      f+3     :     0.001569
      f-3     :     0.001454
  7 O s       :     3.372001  s :     3.372001
      pz      :     1.508955  p :     4.554954
      px      :     1.463138
      py      :     1.582860
      dz2     :     0.015062  d :     0.098589
      dxz     :     0.017314
      dyz     :     0.018675
      dx2y2   :     0.015974
      dxy     :     0.031565
      f0      :     0.000823  f :     0.007307
      f+1     :     0.000872
      f-1     :     0.000758
      f+2     :     0.001008
      f-2     :     0.001391
      f+3     :     0.001181
      f-3     :     0.001274
  8 O s       :     3.394314  s :     3.394314
      pz      :     1.398251  p :     4.414193
      px      :     1.457347
      py      :     1.558594
      dz2     :     0.013836  d :     0.093829
      dxz     :     0.021684
      dyz     :     0.007749
      dx2y2   :     0.027976
      dxy     :     0.022584
      f0      :     0.000954  f :     0.009274
      f+1     :     0.001421
      f-1     :     0.000483
      f+2     :     0.001347
      f-2     :     0.000923
      f+3     :     0.002064
      f-3     :     0.002082


                      *****************************
                      * MAYER POPULATION ANALYSIS *
                      *****************************

  NA   - Mulliken gross atomic population
  ZA   - Total nuclear charge
  QA   - Mulliken gross atomic charge
  VA   - Mayer's total valence
  BVA  - Mayer's bonded valence
  FA   - Mayer's free valence

  ATOM       NA         ZA         QA         VA         BVA        FA
  0 C      5.2645     6.0000     0.7355     4.0858     3.7323     0.3535
  1 O      8.7299     8.0000    -0.7299     1.8503     1.3757     0.4746
  2 O      8.7165     8.0000    -0.7165     1.8762     1.3985     0.4777
  3 O      8.4571     8.0000    -0.4571     2.2262     1.7858     0.4404
  4 Th    87.6628    90.0000     2.3372     2.7660     1.6853     1.0807
  5 C      5.2644     6.0000     0.7356     4.0850     3.7309     0.3541
  6 O      8.7273     8.0000    -0.7273     1.8539     1.3790     0.4750
  7 O      8.7189     8.0000    -0.7189     1.8804     1.4021     0.4782
  8 O      8.4584     8.0000    -0.4584     2.2251     1.7842     0.4409

  Mayer bond orders larger than 0.1
B(  0-C ,  1-O ) :   0.9979 B(  0-C ,  2-O ) :   0.9656 B(  0-C ,  3-O ) :   1.8140 
B(  1-O ,  4-Th) :   0.4133 B(  2-O ,  4-Th) :   0.4705 B(  4-Th,  6-O ) :   0.4183 
B(  4-Th,  7-O ) :   0.4714 B(  5-C ,  6-O ) :   0.9962 B(  5-C ,  7-O ) :   0.9672 
B(  5-C ,  8-O ) :   1.8125 


                *******************************************
                * RELAXED MP2 DENSITY POPULATION ANALYSIS *
                *******************************************

------------------------------------------------------------------------------
                           ORCA POPULATION ANALYSIS
------------------------------------------------------------------------------
Input electron density              ... /home/nikolayandreadi_2125/_scratch/MP2/Th_CO3_2.pmp2re
BaseName (.gbw .S,...)              ... /home/nikolayandreadi_2125/_scratch/MP2/Th_CO3_2

                    ********************************
[...]
  1 O      8.6933     8.0000    -0.6933     1.8167     1.3428     0.4739
  2 O      8.6934     8.0000    -0.6934     1.8169     1.3430     0.4739
  3 O      8.4630     8.0000    -0.4630     2.2184     1.7738     0.4447
  4 Th    87.7590    90.0000     2.2410     2.2617     1.1842     1.0776
  5 C      5.2707     6.0000     0.7293     4.0197     3.6587     0.3609
  6 O      8.6933     8.0000    -0.6933     1.8166     1.3428     0.4739
  7 O      8.6934     8.0000    -0.6934     1.8169     1.3430     0.4739
  8 O      8.4631     8.0000    -0.4631     2.2183     1.7736     0.4447

  Mayer bond orders larger than 0.1
B(  0-C ,  1-O ) :   0.9990 B(  0-C ,  2-O ) :   0.9989 B(  0-C ,  3-O ) :   1.8031 
B(  0-C ,  4-Th) :  -0.1595 B(  1-O ,  4-Th) :   0.3707 B(  2-O ,  4-Th) :   0.3709 
B(  4-Th,  5-C ) :  -0.1594 B(  4-Th,  6-O ) :   0.3706 B(  4-Th,  7-O ) :   0.3708 
B(  5-C ,  6-O ) :   0.9989 B(  5-C ,  7-O ) :   0.9990 B(  5-C ,  8-O ) :   1.8031 



                *******************************************
                * RELAXED MP2 DENSITY POPULATION ANALYSIS *
                *******************************************

------------------------------------------------------------------------------
                           ORCA POPULATION ANALYSIS
------------------------------------------------------------------------------
Input electron density              ... /home/nikolayandreadi_2125/_scratch/MP2/Th_CO3_2.pmp2re
BaseName (.gbw .S,...)              ... /home/nikolayandreadi_2125/_scratch/MP2/Th_CO3_2

                    ********************************
                    * MULLIKEN POPULATION ANALYSIS *
                    ********************************

-----------------------
MULLIKEN ATOMIC CHARGES
-----------------------
   0 C :    0.538708
   1 O :   -0.563713
   2 O :   -0.563755
   3 O :   -0.344932
   4 Th:    1.867499
   5 C :    0.538650
   6 O :   -0.563711
   7 O :   -0.563765
   8 O :   -0.344981
Sum of atomic charges:   -0.0000000

--------------------------------
MULLIKEN REDUCED ORBITAL CHARGES
--------------------------------
  0 C s       :     2.918259  s :     2.918259
      pz      :     0.770752  p :     2.184615
      px      :     0.644680
      py      :     0.769184
      dz2     :     0.053598  d :     0.324580
      dxz     :     0.089703
      dyz     :     0.022944
      dx2y2   :     0.067709
      dxy     :     0.090626
      f0      :     0.003420  f :     0.033837
      f+1     :     0.004864
      f-1     :     0.002957
      f+2     :     0.006876
      f-2     :     0.003233
      f+3     :     0.004930
      f-3     :     0.007556
  1 O s       :     3.940031  s :     3.940031
      pz      :     1.509022  p :     4.560344
      px      :     1.508461
      py      :     1.542861
      dz2     :     0.011395  d :     0.059236
      dxz     :     0.010893
      dyz     :     0.012448
      dx2y2   :     0.011605
      dxy     :     0.012895
      f0      :     0.000534  f :     0.004102
      f+1     :     0.000617
      f-1     :     0.000604
      f+2     :     0.000604
      f-2     :     0.000706
      f+3     :     0.000493
      f-3     :     0.000544
  2 O s       :     3.940026  s :     3.940026
      pz      :     1.552019  p :     4.560395
      px      :     1.497990
      py      :     1.510386
      dz2     :     0.012614  d :     0.059233
      dxz     :     0.012905
      dyz     :     0.012182
      dx2y2   :     0.010303
      dxy     :     0.011228
      f0      :     0.000526  f :     0.004102
      f+1     :     0.000521
      f-1     :     0.000568
      f+2     :     0.000606
      f-2     :     0.000701
      f+3     :     0.000599
      f-3     :     0.000580
  3 O s       :     3.895747  s :     3.895747
      pz      :     1.545398  p :     4.384241
      px      :     1.284394
      py      :     1.554448
      dz2     :     0.008585  d :     0.060037
      dxz     :     0.015837
      dyz     :     0.005872
      dx2y2   :     0.013992
      dxy     :     0.015752
      f0      :     0.000633  f :     0.004907
      f+1     :     0.000710
      f-1     :     0.000379
      f+2     :     0.000806
      f-2     :     0.000441
      f+3     :     0.000880
      f-3     :     0.001058
  4 Ths       :    12.396561  s :    12.396561
      pz      :     9.977877  p :    29.903981
      px      :     9.947789
      py      :     9.978315
      dz2     :     6.219591  d :    31.113776
      dxz     :     6.313152
      dyz     :     6.096463
      dx2y2   :     6.172461
      dxy     :     6.312108
      f0      :     2.089336  f :    14.718182
      f+1     :     2.129646
      f-1     :     2.036559
      f+2     :     2.090362
      f-2     :     2.115160
      f+3     :     2.110770
      f-3     :     2.146349
  5 C s       :     2.918405  s :     2.918405
      pz      :     0.770793  p :     2.184589
      px      :     0.644638
      py      :     0.769158
      dz2     :     0.050300  d :     0.324521
      dxz     :     0.094935
      dyz     :     0.019422
      dx2y2   :     0.064873
      dxy     :     0.094992
      f0      :     0.003392  f :     0.033835
      f+1     :     0.004655
      f-1     :     0.003001
      f+2     :     0.007140
      f-2     :     0.002930
      f+3     :     0.004921
      f-3     :     0.007795
  6 O s       :     3.940001  s :     3.940001
      pz      :     1.531433  p :     4.560372
      px      :     1.504339
      py      :     1.524600
      dz2     :     0.012697  d :     0.059236
      dxz     :     0.012773
      dyz     :     0.012191
      dx2y2   :     0.010389
      dxy     :     0.011186
      f0      :     0.000539  f :     0.004102
      f+1     :     0.000509
      f-1     :     0.000582
      f+2     :     0.000630
      f-2     :     0.000713
      f+3     :     0.000566
      f-3     :     0.000564
  7 O s       :     3.940013  s :     3.940013
      pz      :     1.535098  p :     4.560421
      px      :     1.493883
      py      :     1.531440
      dz2     :     0.011126  d :     0.059229
      dxz     :     0.011140
      dyz     :     0.012091
      dx2y2   :     0.011711
      dxy     :     0.013161
      f0      :     0.000544  f :     0.004102
      f+1     :     0.000575
      f-1     :     0.000594
      f+2     :     0.000599
      f-2     :     0.000712
      f+3     :     0.000503
      f-3     :     0.000574
  8 O s       :     3.895735  s :     3.895735
      pz      :     1.546540  p :     4.384306
      px      :     1.282623
      py      :     1.555143
      dz2     :     0.008369  d :     0.060035
      dxz     :     0.016080
      dyz     :     0.005576
      dx2y2   :     0.013993
      dxy     :     0.016016
      f0      :     0.000649  f :     0.004906
      f+1     :     0.000680
      f-1     :     0.000379
      f+2     :     0.000825
      f-2     :     0.000402
      f+3     :     0.000876
      f-3     :     0.001096


                     *******************************
                     * LOEWDIN POPULATION ANALYSIS *
                     *******************************

----------------------
LOEWDIN ATOMIC CHARGES
----------------------
   0 C :   -0.650537
   1 O :    0.047086
   2 O :    0.046973
   3 O :    0.141007
   4 Th:    0.830996
   5 C :   -0.650472
   6 O :    0.047067
   7 O :    0.046990
   8 O :    0.140891

-------------------------------
LOEWDIN REDUCED ORBITAL CHARGES
-------------------------------
  0 C s       :     2.719058  s :     2.719058
      pz      :     0.810348  p :     2.579660
      px      :     0.958209
      py      :     0.811103
      dz2     :     0.169062  d :     1.149343
      dxz     :     0.302201
      dyz     :     0.124987
      dx2y2   :     0.246397
      dxy     :     0.306696
      f0      :     0.022021  f :     0.202476
      f+1     :     0.027698
      f-1     :     0.017377
      f+2     :     0.039399
      f-2     :     0.022009
      f+3     :     0.028621
      f-3     :     0.045352
  1 O s       :     3.374249  s :     3.374249
      pz      :     1.465425  p :     4.464160
      px      :     1.479260
      py      :     1.519476
      dz2     :     0.019664  d :     0.106658
      dxz     :     0.019156
      dyz     :     0.021563
      dx2y2   :     0.016724
      dxy     :     0.029553
      f0      :     0.000870  f :     0.007847
      f+1     :     0.001137
      f-1     :     0.001127
      f+2     :     0.001156
      f-2     :     0.001416
      f+3     :     0.000922
      f-3     :     0.001219
  2 O s       :     3.374348  s :     3.374348
      pz      :     1.523843  p :     4.464201
      px      :     1.472281
      py      :     1.468077
      dz2     :     0.015202  d :     0.106634
      dxz     :     0.029791
      dyz     :     0.020797
      dx2y2   :     0.020794
      dxy     :     0.020049
      f0      :     0.000853  f :     0.007844
      f+1     :     0.001069
      f-1     :     0.000921
      f+2     :     0.001419
      f-2     :     0.001421
      f+3     :     0.001043
      f-3     :     0.001118
  3 O s       :     3.400486  s :     3.400486
      pz      :     1.442175  p :     4.354807
      px      :     1.464391
      py      :     1.448241
      dz2     :     0.014121  d :     0.094314
      dxz     :     0.021986
      dyz     :     0.005997
      dx2y2   :     0.030533
      dxy     :     0.021675
      f0      :     0.001018  f :     0.009386
      f+1     :     0.001614
      f-1     :     0.000439
      f+2     :     0.001457
      f-2     :     0.000544
      f+3     :     0.002320
      f-3     :     0.001994
  4 Ths       :    12.062752  s :    12.062752
      pz      :     9.987190  p :    29.890621
      px      :     9.916162
      py      :     9.987268
      dz2     :     6.338777  d :    31.816046
      dxz     :     6.512847
      dyz     :     6.138184
      dx2y2   :     6.310450
      dxy     :     6.515788
      f0      :     2.150130  f :    15.399586
      f+1     :     2.263038
      f-1     :     2.074805
      f+2     :     2.190558
      f-2     :     2.216567
      f+3     :     2.233857
      f-3     :     2.270631
  5 C s       :     2.719066  s :     2.719066
      pz      :     0.806306  p :     2.579627
      px      :     0.964302
      py      :     0.809018
      dz2     :     0.163243  d :     1.149317
      dxz     :     0.307395
      dyz     :     0.118295
      dx2y2   :     0.247717
      dxy     :     0.312668
      f0      :     0.021883  f :     0.202463
      f+1     :     0.026598
      f-1     :     0.016786
      f+2     :     0.040014
      f-2     :     0.021767
      f+3     :     0.029000
      f-3     :     0.046416
  6 O s       :     3.374254  s :     3.374254
      pz      :     1.506426  p :     4.464172
      px      :     1.481924
      py      :     1.475822
      dz2     :     0.015445  d :     0.106661
      dxz     :     0.028991
      dyz     :     0.021274
      dx2y2   :     0.021553
      dxy     :     0.019398
      f0      :     0.000898  f :     0.007846
      f+1     :     0.000976
      f-1     :     0.000957
      f+2     :     0.001502
      f-2     :     0.001460
      f+3     :     0.000979
      f-3     :     0.001076
  7 O s       :     3.374328  s :     3.374328
      pz      :     1.479461  p :     4.464211
      px      :     1.474835
      py      :     1.509915
      dz2     :     0.018472  d :     0.106627
      dxz     :     0.019482
      dyz     :     0.020692
      dx2y2   :     0.017795
      dxy     :     0.030186
      f0      :     0.000879  f :     0.007844
      f+1     :     0.001039
      f-1     :     0.001033
      f+2     :     0.001124
      f-2     :     0.001477
      f+3     :     0.000952
      f-3     :     0.001339
  8 O s       :     3.400549  s :     3.400549
      pz      :     1.439745  p :     4.354871
      px      :     1.468052
      py      :     1.447075
      dz2     :     0.014137  d :     0.094304
      dxz     :     0.021617
      dyz     :     0.005579
      dx2y2   :     0.031293
      dxy     :     0.021679
      f0      :     0.001017  f :     0.009385
      f+1     :     0.001615
      f-1     :     0.000442
      f+2     :     0.001436
      f-2     :     0.000447
      f+3     :     0.002401
      f-3     :     0.002026


                      *****************************
                      * MAYER POPULATION ANALYSIS *
                      *****************************

  NA   - Mulliken gross atomic population
  ZA   - Total nuclear charge
  QA   - Mulliken gross atomic charge
  VA   - Mayer's total valence
  BVA  - Mayer's bonded valence
  FA   - Mayer's free valence

  ATOM       NA         ZA         QA         VA         BVA        FA
  0 C      5.4613     6.0000     0.5387     4.1745     3.8346     0.3399
  1 O      8.5637     8.0000    -0.5637     1.9842     1.5285     0.4557
  2 O      8.5638     8.0000    -0.5638     1.9844     1.5287     0.4557
  3 O      8.3449     8.0000    -0.3449     2.3658     1.9383     0.4274
  4 Th    88.1325    90.0000     1.8675     2.8295     1.7859     1.0436
  5 C      5.4614     6.0000     0.5386     4.1747     3.8348     0.3399
  6 O      8.5637     8.0000    -0.5637     1.9841     1.5284     0.4557
  7 O      8.5638     8.0000    -0.5638     1.9844     1.5287     0.4557
  8 O      8.3450     8.0000    -0.3450     2.3657     1.9382     0.4275

  Mayer bond orders larger than 0.1
B(  0-C ,  1-O ) :   1.0183 B(  0-C ,  2-O ) :   1.0182 B(  0-C ,  3-O ) :   1.9195 
B(  0-C ,  4-Th) :  -0.1414 B(  1-O ,  4-Th) :   0.5045 B(  2-O ,  4-Th) :   0.5048 
B(  4-Th,  5-C ) :  -0.1413 B(  4-Th,  6-O ) :   0.5044 B(  4-Th,  7-O ) :   0.5046 
B(  5-C ,  6-O ) :   1.0182 B(  5-C ,  7-O ) :   1.0183 B(  5-C ,  8-O ) :   1.9195 



----------------------------------
MP2 DERIVATIVE INTEGRAL GENERATION
----------------------------------


Input Wavefunction Amplitudes       ... /home/nikolayandreadi_2125/_scratch/MP2/Th_CO3_2.mp2tsaa.tmp.proc19
Input Correlated Electron Density   ... /home/nikolayandreadi_2125/_scratch/MP2/Th_CO3_2.pmp2re
Input Energy Weighted Density       ... /home/nikolayandreadi_2125/_scratch/MP2/Th_CO3_2.wmp2.tmp
Input SCF Electron Density          ... /home/nikolayandreadi_2125/_scratch/MP2/Th_CO3_2.scfp.tmp

One-Electron Terms    ...
                        ... One-Electron Terms done
Prescreening matrices              ... done

Batch handling in the gradient evaluation:
Memory available                      ... 31500.0 MB
Memory per occupied orbital in Q2     ...   43.4 MB
Memory per occupied orbital in Q3     ...    0.2 MB
Total memory requirement per |i>      ...   43.5 MB
Max. Number of orbitals possible      ...    723
Number of orbitals treated per batch  ...     33
Number of batches to be done          ...      1
Batch   0: i=   42 ...    74

---------------------------------------
MP2 TOTAL ENERGY:   -26948.030412111 Eh
---------------------------------------

-----------------------------------
NORM OF THE MP2 GRADIENT:  0.000291
-----------------------------------

-------------------------   --------------------
FINAL SINGLE POINT ENERGY    -26948.030412110700
-------------------------   --------------------

                                *** OPTIMIZATION RUN DONE ***

                            ***************************************
                            *     ORCA property calculations      *
                            ***************************************

                                    ---------------------
                                    Active property flags
                                    ---------------------
   (+) Dipole Moment


------------------------------------------------------------------------------
                       ORCA ELECTRIC PROPERTIES CALCULATION
------------------------------------------------------------------------------

Dipole Moment Calculation                       ... on
Quadrupole Moment Calculation                   ... off
Polarizability Calculation                      ... off
GBWName                                         ... /home/nikolayandreadi_2125/_scratch/MP2/Th_CO3_2.gbw
Electron density file                           ... /home/nikolayandreadi_2125/_scratch/MP2/Th_CO3_2.scfp.tmp
The origin for moment calculation is the CENTER OF MASS  = (-4.841795, -0.470610 -0.450463)

-------------
DIPOLE MOMENT
-------------
                                X             Y             Z
Electronic contribution:     -0.93131     -11.76278     -12.04625
Nuclear contribution   :      0.76527       9.67155       9.90455
                        -----------------------------------------
Total Dipole Moment    :     -0.16605      -2.09122      -2.14170
                        -----------------------------------------
Magnitude (a.u.)       :      2.99794
Magnitude (Debye)      :      7.62017


                         *** MP2 UNRELAXED DENSITY ***

------------------------------------------------------------------------------
                       ORCA ELECTRIC PROPERTIES CALCULATION
------------------------------------------------------------------------------

Dipole Moment Calculation                       ... on
Quadrupole Moment Calculation                   ... off
Polarizability Calculation                      ... off
GBWName                                         ... /home/nikolayandreadi_2125/_scratch/MP2/Th_CO3_2.gbw
Electron density file                           ... /home/nikolayandreadi_2125/_scratch/MP2/Th_CO3_2.pmp2ur
The origin for moment calculation is the CENTER OF MASS  = (-4.841795, -0.470610 -0.450463)

-------------
DIPOLE MOMENT
-------------
                                X             Y             Z
Electronic contribution:     -0.92667     -11.70425     -11.98630
Nuclear contribution   :      0.76527       9.67155       9.90455
                        -----------------------------------------
Total Dipole Moment    :     -0.16140      -2.03270      -2.08175
                        -----------------------------------------
Magnitude (a.u.)       :      2.91403
Magnitude (Debye)      :      7.40688


                           *** MP2 RELAXED DENSITY ***

------------------------------------------------------------------------------
                       ORCA ELECTRIC PROPERTIES CALCULATION
------------------------------------------------------------------------------

Dipole Moment Calculation                       ... on
Quadrupole Moment Calculation                   ... off
Polarizability Calculation                      ... off
GBWName                                         ... /home/nikolayandreadi_2125/_scratch/MP2/Th_CO3_2.gbw
Electron density file                           ... /home/nikolayandreadi_2125/_scratch/MP2/Th_CO3_2.pmp2re
The origin for moment calculation is the CENTER OF MASS  = (-4.841795, -0.470610 -0.450463)

-------------
DIPOLE MOMENT
-------------
                                X             Y             Z
Electronic contribution:     -0.91151     -11.51360     -11.79104
Nuclear contribution   :      0.76527       9.67155       9.90455
                        -----------------------------------------
Total Dipole Moment    :     -0.14624      -1.84204      -1.88649
                        -----------------------------------------
Magnitude (a.u.)       :      2.64071
Magnitude (Debye)      :      6.71215


Timings for individual modules:

Sum of individual times         ...     9901.888 sec (= 165.031 min)
GTO integral calculation        ...       39.364 sec (=   0.656 min)   0.4 %
Relativistic integrals          ...       14.935 sec (=   0.249 min)   0.2 %
SCF iterations                  ...     1865.864 sec (=  31.098 min)  18.8 %
MP2 module                      ...     7980.671 sec (= 133.011 min)  80.6 %
Geometry relaxation             ...        1.054 sec (=   0.018 min)   0.0 %
                             ****ORCA TERMINATED NORMALLY****
TOTAL RUN TIME: 0 days 2 hours 45 minutes 7 seconds 125 msec
