
                                 *****************
                                 * O   R   C   A *
                                 *****************

           --- An Ab Initio, DFT and Semiempirical electronic structure package ---

                  #######################################################
                  #                        -***-                        #
                  #  Department of molecular theory and spectroscopy    #
                  #              Directorship: Frank Neese              #
                  # Max Planck Institute for Chemical Energy Conversion #
                  #                  D-45470 Muelheim/Ruhr              #
                  #                       Germany                       #
                  #                                                     #
                  #                  All rights reserved                #
                  #                        -***-                        #
                  #######################################################


                         Program Version 4.0.1.2 - RELEASE -


 With contributions from (in alphabetic order):
   Daniel Aravena         : Magnetic Properties
   Michael Atanasov       : Ab Initio Ligand Field Theory
   Ute Becker             : Parallelization
   Martin Brehm           : Molecular dynamics
   Dmytro Bykov           : SCF Hessian
   Vijay G. Chilkuri      : MRCI spin determinant printing
   Dipayan Datta          : RHF DLPNO-CCSD density
   Achintya Kumar Dutta   : EOM-CC, STEOM-CC
   Dmitry Ganyushin       : Spin-Orbit,Spin-Spin,Magnetic field MRCI
   Yang Guo               : DLPNO-NEVPT2, CIM, IAO-localization
   Andreas Hansen         : Spin unrestricted coupled pair/coupled cluster methods
   Lee Huntington         : MR-EOM, pCC
   Robert Izsak           : Overlap fitted RIJCOSX, COSX-SCS-MP3, EOM
   Christian Kollmar      : KDIIS, OOCD, Brueckner-CCSD(T), CCSD density
   Simone Kossmann        : Meta GGA functionals, TD-DFT gradient, OOMP2, MP2 Hessian
   Martin Krupicka        : AUTO-CI
   Dagmar Lenk            : GEPOL surface
   Dimitrios Liakos       : Extrapolation schemes; parallel MDCI
   Dimitrios Manganas     : ROCIS; embedding schemes
   Dimitrios Pantazis     : SARC Basis sets
   Taras Petrenko         : DFT Hessian,TD-DFT gradient, ASA, ECA, R-Raman, ABS, FL, XAS/XES, NRVS
   Peter Pinski           : DLPNO-MP2
   Christoph Reimann      : Effective Core Potentials
   Marius Retegan         : Local ZFS, SOC
   Christoph Riplinger    : Optimizer, TS searches, QM/MM, DLPNO-CCSD(T), (RO)-DLPNO pert. Triples
   Tobias Risthaus        : Range-separated hybrids, TD-DFT gradient, RPA, STAB
   Michael Roemelt        : Restricted open shell CIS
   Masaaki Saitow         : Open-shell DLPNO
   Barbara Sandhoefer     : DKH picture change effects
   Kantharuban Sivalingam : CASSCF convergence, NEVPT2, FIC-MRCI
   Georgi Stoychev        : AutoAux
   Boris Wezisla          : Elementary symmetry handling
   Frank Wennmohs         : Technical directorship


 We gratefully acknowledge several colleagues who have allowed us to
 interface, adapt or use parts of their codes:
   Stefan Grimme, W. Hujo, H. Kruse,             : VdW corrections, initial TS optimization,
                  C. Bannwarth                     DFT functionals, gCP, sTDA/sTD-DF
   Ed Valeev                                     : LibInt (2-el integral package), F12 methods
   Garnet Chan, S. Sharma, J. Yang, R. Olivares  : DMRG
   Ulf Ekstrom                                   : XCFun DFT Library
   Mihaly Kallay                                 : mrcc  (arbitrary order and MRCC methods)
   Andreas Klamt, Michael Diedenhofen            : otool_cosmo (COSMO solvation model)
   Jiri Pittner, Ondrej Demel                    : Mk-CCSD
   Frank Weinhold                                : gennbo (NPA and NBO analysis)
   Christopher J. Cramer and Donald G. Truhlar   : smd solvation model


 Your calculation uses the libint2 library for the computation of 2-el integrals
 For citations please refer to: http://libint.valeyev.net

 This ORCA versions uses:
   CBLAS   interface :  Fast vector & matrix operations
   LAPACKE interface :  Fast linear algebra routines
   SCALAPACK package :  Parallel linear algebra routines


Your calculation utilizes the basis: DKH-def2-TZVP
   Exponents from def2-TZVP [F. Weigend and R. Ahlrichs, Phys. Chem. Chem. Phys. 7, 3297 (2005)],
   recontracted for DKH2 by D. A. Pantazis.

Your calculation utilizes the auxiliary basis: SARC/J 
   decontracted def2/J up to Kr:
   F. Weigend, Phys. Chem. Chem. Phys. 8, 1057 (2006)
   and SARC auxiliary basis sets beyond Kr:
   D. A. Pantazis and F. Neese, J. Chem. Theory Comput. 5, 2229 (2009).
   D. A. Pantazis, X. Y. Chen, C. R. Landis and F. Neese, J. Chem. Theory Comput. 4, 908 (2008).
   D. A. Pantazis and F. Neese, Theor. Chem. Acc. 131, 1292 (2012).
   D. A. Pantazis and F. Neese, J. Chem. Theory Comput. 7, 677 (2011).

================================================================================
                                        WARNINGS
                       Please study these warnings very carefully!
================================================================================

Warning: TCutStore was < 0. Adjusted to Thresh (uncritical)

WARNING: In scalar relativistic gradient/hessian runs we need the one-center approximation
  ===> : %rel OneCenter is turned on

WARNING: The frozen-core approximation for MP2-gradient calculations is turned on by default.

WARNING: Geometry Optimization
  ===> : Switching off AutoStart
         For restart on a previous wavefunction, please use MOREAD

WARNING: Post HF methods need fully converged wavefunctions
  ===> : Setting SCFConvForced true
         You can overwrite this default with %scf ConvForced false 


INFO   : the flag for use of LIBINT has been found!

================================================================================
                                       INPUT FILE
================================================================================
NAME = /home/nikolayandreadi_2125/_scratch/MP2/ThCl4.inp
|  1> !Opt MP2 DKH-def2-TZVP DKH SARC/J SlowConv
|  2> 
|  3> %pal
|  4> nproc 20
|  5> end
|  6> 
|  7> %maxcore 31500
|  8> 
|  9> %basis
| 10> newgto Th "SARC-DKH-TZVP" end
| 11> end
| 12> 
| 13> %scf
| 14> MaxIter 5000
| 15> Guess HCore
| 16> end
| 17> 
| 18> %method
| 19> Z_MaxIter 5000
| 20> end
| 21> 
| 22> * xyz 0 1
| 23>   Th     0.019010   -0.013372   -0.001403
| 24>   Cl    -0.883968   -1.211488    2.070444
| 25>   Cl    -0.884963   -1.213734   -2.071410
| 26>   Cl    -0.829012    2.396188    0.001430
| 27>   Cl     2.578933    0.042406    0.000940
| 28> **                         ****END OF INPUT****
================================================================================

                       *****************************
                       * Geometry Optimization Run *
                       *****************************

Geometry optimization settings:
Update method            Update   .... BFGS
Choice of coordinates    CoordSys .... Redundant Internals
Initial Hessian          InHess   .... Almoef's Model

Convergence Tolerances:
Energy Change            TolE     ....  5.0000e-06 Eh
Max. Gradient            TolMAXG  ....  3.0000e-04 Eh/bohr
RMS Gradient             TolRMSG  ....  1.0000e-04 Eh/bohr
Max. Displacement        TolMAXD  ....  4.0000e-03 bohr
RMS Displacement         TolRMSD  ....  2.0000e-03 bohr

------------------------------------------------------------------------------
                        ORCA OPTIMIZATION COORDINATE SETUP
------------------------------------------------------------------------------

The optimization will be done in new redundant internal coordinates
Making redundant internal coordinates   ...  (new redundants) done
Evaluating the initial hessian          ...  (Almloef) done
Evaluating the coordinates              ...  done
Calculating the B-matrix                .... done
Calculating the G-matrix                .... done
Diagonalizing the G-matrix              .... done
The first mode is                       ....    1
The number of degrees of freedom        ....    9

    -----------------------------------------------------------------
                    Redundant Internal Coordinates


    -----------------------------------------------------------------
         Definition                    Initial Value    Approx d2E/dq
    -----------------------------------------------------------------
      1. B(Cl  1,Th  0)                  2.5580         0.064528   
      2. B(Cl  2,Th  0)                  2.5579         0.064548   
      3. B(Cl  3,Th  0)                  2.5544         0.065381   
      4. B(Cl  4,Th  0)                  2.5605         0.063932   
      5. A(Cl  1,Th  0,Cl  3)          108.8885         0.249613   
      6. A(Cl  2,Th  0,Cl  3)          109.0403         0.249624   
      7. A(Cl  1,Th  0,Cl  4)          111.2463         0.248800   
      8. A(Cl  2,Th  0,Cl  4)          111.3633         0.248812   
      9. A(Cl  3,Th  0,Cl  4)          108.1407         0.249276   
     10. A(Cl  1,Th  0,Cl  2)          108.1137         0.249147   
    -----------------------------------------------------------------

Number of atoms                         .... 5
Number of degrees of freedom            .... 10

         *************************************************************
         *                GEOMETRY OPTIMIZATION CYCLE   1            *
         *************************************************************
---------------------------------
CARTESIAN COORDINATES (ANGSTROEM)
---------------------------------
  Th     0.019010   -0.013372   -0.001403
  Cl    -0.883968   -1.211488    2.070444
  Cl    -0.884963   -1.213734   -2.071410
  Cl    -0.829012    2.396188    0.001430
  Cl     2.578933    0.042406    0.000940

----------------------------
CARTESIAN COORDINATES (A.U.)
----------------------------
  NO LB      ZA    FRAG     MASS         X           Y           Z
   0 Th   90.0000    0   232.038    0.035924   -0.025269   -0.002651
   1 Cl   17.0000    0    35.453   -1.670457   -2.289381    3.912572
   2 Cl   17.0000    0    35.453   -1.672338   -2.293625   -3.914398
   3 Cl   17.0000    0    35.453   -1.566606    4.528139    0.002702
   4 Cl   17.0000    0    35.453    4.873477    0.080136    0.001776

--------------------------------
INTERNAL COORDINATES (ANGSTROEM)
--------------------------------
 Th     0   0   0     0.000000000000     0.00000000     0.00000000
 Cl     1   0   0     2.558007273123     0.00000000     0.00000000
 Cl     1   2   0     2.557922026924   108.11367514     0.00000000
 Cl     1   2   3     2.554433152770   108.88848433   118.33994880
 Cl     1   2   3     2.560531671521   111.24634345   237.42458315

---------------------------
INTERNAL COORDINATES (A.U.)
---------------------------
 Th     0   0   0     0.000000000000     0.00000000     0.00000000
 Cl     1   0   0     4.833933194781     0.00000000     0.00000000
 Cl     1   2   0     4.833772102811   108.11367514     0.00000000
 Cl     1   2   3     4.827179086145   108.88848433   118.33994880
 Cl     1   2   3     4.838703616406   111.24634345   237.42458315

---------------------
BASIS SET INFORMATION
---------------------
There are 2 groups of distinct atoms

 Group   1 Type Th  : 29s20p16d12f contracted to 21s13p10d7f pattern {911111111111111111111/8111111111111/7111111111/6111111}
 Group   2 Type Cl  : 14s9p3d1f contracted to 8s4p2d1f pattern {71111111/6111/21/1}

Atom   0Th   basis set group =>   1
Atom   1Cl   basis set group =>   2
Atom   2Cl   basis set group =>   2
Atom   3Cl   basis set group =>   2
Atom   4Cl   basis set group =>   2

INFORMATION: There is an auxiliary basis set but the global RI flag is NOT set

-------------------------------
AUXILIARY BASIS SET INFORMATION
-------------------------------
There are 2 groups of distinct atoms

 Group   1 Type Th  : 33s10p8d6f4g2h1i contracted to 33s10p8d6f4g2h1i pattern {111111111111111111111111111111111/1111111111/11111111/111111/1111/11/1}
 Group   2 Type Cl  : 14s5p5d2f1g contracted to 14s5p5d2f1g pattern {11111111111111/11111/11111/11/1}

Atom   0Th   basis set group =>   1
Atom   1Cl   basis set group =>   2
Atom   2Cl   basis set group =>   2
Atom   3Cl   basis set group =>   2
Atom   4Cl   basis set group =>   2


           ************************************************************
           *        Program running with 20 parallel MPI-processes    *
           *              working on a common directory               *
           ************************************************************
------------------------------------------------------------------------------
                           ORCA GTO INTEGRAL CALCULATION
------------------------------------------------------------------------------

                         BASIS SET STATISTICS AND STARTUP INFO

 # of primitive gaussian shells          ...  185
 # of primitive gaussian functions       ...  505
 # of contracted shells                  ...  111
 # of contracted basis functions         ...  307
 Highest angular momentum                ...    3
 Maximum contraction depth               ...    9
 Integral package used                   ... LIBINT
 Integral threshhold            Thresh   ...  2.500e-11
 Primitive cut-off              TCut     ...  2.500e-12


------------------------------ INTEGRAL EVALUATION ----------------------------


 * One electron integrals 
 Pre-screening matrix                    ... done
 Shell pair data                         ... done (   0.001 sec)

------------------------------------------------------------------------------
                          ORCA RELATIVISTIC HAMILTONIAN
------------------------------------------------------------------------------

Relativistic Method            ... DKH
Order of DKH treatment         ...   2
Treatment of potential         ... V(e,N)
Eps parameter for DKH          ...   0.00000000010000
Nucleus model                  ... Point Nucleus
Speed of light used            ... 137.03598950000000


            ************************************************
            *        DOUGLAS-KROLL-HESS HAMILTONIAN        *
            *   Programmed by FN according to literature   *
            *        procedures. Special thanks to         *
            *       B.A. Hess, M. Reiher and A. Wolf       *
            *     University Erlangen-Nuernberg/Bonn       *
            ************************************************

Uncontracting the basis (first version)        ... done
Number of contracted basis functions           ...  307
Number of uncontracted basis functions         ...  505
Initializing the DKH file                      ... done
One center approximation for DKH is active
Finding unique atoms                      ... 2 atom types
 ATOMIC NUMBER  90
          ... doing integrals          ... Computing the DKH transformation
          ... Transforming V and pVp to p**2 space
          ... First transformation of V and pVp
          ... Second transformation of Veff
          ... Adding kinetic energy
          ... Back transformation of Veff to r-space
          ... Recontracting the H-matrix
          ... Computing the DKH correction to the H-matrix
          ... adding submatrics to 1 actual atoms
 ATOMIC NUMBER  17
          ... doing integrals          ... Computing the DKH transformation
          ... Transforming V and pVp to p**2 space
          ... First transformation of V and pVp
          ... Second transformation of Veff
          ... Adding kinetic energy
          ... Back transformation of Veff to r-space
          ... Recontracting the H-matrix
          ... Computing the DKH correction to the H-matrix
          ... adding submatrics to 4 actual atoms
Storing DKH matrices                           ... done
Getting S**(-1/2)                              ... done
Reading the original H-matrix                  ... done
Adding DKH correction to the H-matrix          ... done
Storing the new modified H-matrix              ... done


           ************************************************************
           *        Program running with 20 parallel MPI-processes    *
           *              working on a common directory               *
           ************************************************************
-------------------------------------------------------------------------------
                                 ORCA SCF
-------------------------------------------------------------------------------

------------
SCF SETTINGS
------------
Hamiltonian:
 Ab initio Hamiltonian  Method          .... Hartree-Fock(GTOs)

Relativistic Settings:
 Scalar relativistic method             .... Douglas-Kroll-Hess
 Order of DKH procedure    Order        ....    2
 Mode of DKH-treatment                  .... V=V(e,N)
 Speed of light used       Velit        ....       137.035989
 Cutoff-constant           Eps          ....            1e-10 


General Settings:
 Integral files         IntName         .... /home/nikolayandreadi_2125/_scratch/MP2/ThCl4
 Hartree-Fock type      HFTyp           .... RHF
 Total Charge           Charge          ....    0
 Multiplicity           Mult            ....    1
 Number of Electrons    NEL             ....  158
 Basis Dimension        Dim             ....  307
 Nuclear Repulsion      ENuc            ....   1485.9207113318 Eh

Convergence Acceleration:
 DIIS                   CNVDIIS         .... on
   Start iteration      DIISMaxIt       ....     0
   Startup error        DIISStart       ....  0.200000
   # of expansion vecs  DIISMaxEq       ....     5
   Bias factor          DIISBfac        ....   1.050
   Max. coefficient     DIISMaxC        ....  10.000
 Newton-Raphson         CNVNR           .... off
 SOSCF                  CNVSOSCF        .... off
 Level Shifting         CNVShift        .... on
   Level shift para.    LevelShift      ....    0.2500
   Turn off err/grad.   ShiftErr        ....    0.0000
 Zerner damping         CNVZerner       .... off
 Static damping         CNVDamp         .... on
   Fraction old density DampFac         ....    0.8500
   Max. Damping (<1)    DampMax         ....    0.9800
   Min. Damping (>=0)   DampMin         ....    0.0000
   Turn off err/grad.   DampErr         ....    0.0300
 Fernandez-Rico         CNVRico         .... off

SCF Procedure:
 Maximum # iterations   MaxIter         ....  5000
 SCF integral mode      SCFMode         .... Direct
   Integral package                     .... LIBINT
 Reset frequeny         DirectResetFreq ....    20
 Integral Threshold     Thresh          ....  2.500e-11 Eh
 Primitive CutOff       TCut            ....  2.500e-12 Eh

Convergence Tolerance:
 Convergence Check Mode ConvCheckMode   .... Total+1el-Energy
 Convergence forced     ConvForced      .... 1
 Energy Change          TolE            ....  1.000e-08 Eh
 1-El. energy change                    ....  1.000e-05 Eh
 DIIS Error             TolErr          ....  5.000e-07


Diagonalization of the overlap matrix:
Smallest eigenvalue                        ... 4.203e-04
Time for diagonalization                   ...    0.024 sec
Threshold for overlap eigenvalues          ... 1.000e-08
Number of eigenvalues below threshold      ... 0
Time for construction of square roots      ...    0.013 sec
Total time needed                          ...    0.037 sec

--------------------
INITIAL GUESS: HCORE
--------------------
                      -----------------
                      INTIAL GUESS DONE 
                      -----------------
--------------
SCF ITERATIONS
--------------
ITER       Energy         Delta-E        Max-DP      RMS-DP      [F,P]     Damp
               ***  Starting incremental Fock matrix formation  ***
  0 -20811.2078540424   0.00000000000023.95471735  0.18380267 71.3180383 0.8500
  1 -22998.8708945763-2187.66304053395320.36286460  0.15813524 57.9947607 0.8500
                               ***Turning on DIIS***
  2 -24291.8689036464-1292.99800907008817.31025869  0.13084445 47.4676515 0.8500
  3 -27024.5726732303-2732.70376958385213.28545774  0.10768632 38.9847249 0.8500
  4 -27059.8052384823 -35.23256525205612.25132351  0.09260186 32.7201447 0.8500
  5 -27288.7678235012-228.96258501884910.42790826  0.07879350 27.6306871 0.8500
  6 -27438.4981373610-149.730313859796 8.90381703  0.06708263 23.4044825 0.8500
  7 -27351.1604990759  87.337638285047 7.81732639  0.05778053 19.8436893 0.8500
  8 -27619.6007182191-268.440219143198 6.51636279  0.04869591 16.7847692 0.8500
  9 -27734.5008321326-114.900113913496 5.49838236  0.04128501 14.2268194 0.8500
 10 -27811.6256475666 -77.124815433974 4.66827607  0.03507793 12.0708257 0.8500
 11 -27870.2251699190 -58.599522352455 3.97412372  0.02982959 10.2445868 0.8500
 12 -27917.7730086291 -47.547838710070 3.38646119  0.02537457  8.6942384 0.8500
 13 -27968.9541600902 -51.181151461078 2.87457945  0.02155897  7.3769515 0.8500
 14 -28013.0843592287 -44.130199138504 2.43957518  0.01831582  6.2595145 0.8500
 15 -28049.6749040388 -36.590544810158 2.07154682  0.01556324  5.3113620 0.8500
 16 -28080.2034501318 -30.528546092930 1.75975318  0.01322602  4.5065311 0.8500
 17 -28106.1322329367 -25.928782804967 1.49500755  0.01124011  3.8232622 0.8500
 18 -28128.5497952292 -22.417562292496 1.26981643  0.00955180  3.2432356 0.8500
 19 -28147.8885336373 -19.338738408111 1.07836011  0.00811667  2.7509359 0.8500
               *** Restarting incremental Fock matrix formation ***
                                   *** Resetting DIIS ***
 20 -28079.3471629811  68.541370656207 1.00286885  0.00719718  2.3331592 0.8500
 21 -28143.4275409694 -64.080377988259 0.79740836  0.00592363  1.9250769 0.8500
 22 -28177.3748165617 -33.947275592287 0.64888428  0.00495731  1.6083226 0.8500
 23 -28194.9103474221 -17.535530860412 0.54221109  0.00419701  1.3545244 0.8500
 24 -28205.9993078391 -11.088960416979 0.45900569  0.00356610  1.1457519 0.8500
 25 -28212.2813882319  -6.282080392804 0.39282056  0.00303607  0.9713865 0.8500
 26 -28218.4567719399  -6.175383707978 0.33537413  0.00258303  0.8238813 0.8500
 27 -28224.9913750731  -6.534603133226 0.28489250  0.00219530  0.6986687 0.8500
 28 -28230.8987631399  -5.907388066844 0.24162243  0.00186527  0.5924769 0.8500
 29 -28235.8643444966  -4.965581356708 0.20500113  0.00158504  0.5024441 0.8500
 30 -28239.9579043939  -4.093559897286 0.17408505  0.00134717  0.4261011 0.8500
 31 -28243.4074460830  -3.449541689093 0.14788570  0.00114505  0.3613563 0.8500
 32 -28246.3739763027  -2.966530219695 0.12561331  0.00097323  0.3064461 0.8500
 33 -28248.9316522064  -2.557675903725 0.10667381  0.00082716  0.2598794 0.8500
 34 -28251.1243794779  -2.192727271464 0.09058330  0.00070301  0.2203904 0.8500
 35 -28252.9948595087  -1.870480030804 0.07692302  0.00059751  0.1869037 0.8500
 36 -28254.5887916885  -1.593932179821 0.06532685  0.00050785  0.1585065 0.8500
 37 -28255.9487694771  -1.359977788587 0.05548055  0.00043164  0.1344248 0.8500
 38 -28257.1104815274  -1.161712050267 0.04711846  0.00036687  0.1140028 0.8500
 39 -28258.1030466404  -0.992565113072 0.04001661  0.00031183  0.0966841 0.8500
               *** Restarting incremental Fock matrix formation ***
                                   *** Resetting DIIS ***
 40 -28256.7615140887   1.341532551796 0.03660907  0.00027003  0.0819971 0.8500
 41 -28258.7904830038  -2.028968915169 0.02938302  0.00022567  0.0678281 0.8500
 42 -28260.0760479612  -1.285564957401 0.02402657  0.00019078  0.0567244 0.8500
 43 -28260.7557956544  -0.679747693215 0.02020000  0.00016232  0.0478547 0.8500
 44 -28261.2084633249  -0.452667670437 0.01718462  0.00013817  0.0405499 0.8500
 45 -28261.4923846937  -0.283921368853 0.01475235  0.00011761  0.0344225 0.8500
 46 -28261.8034212762  -0.311036582512 0.08390991  0.00066668  0.0292051 0.0000
 47 -28263.8817882094  -2.078366933114 0.00082953  0.00001056  0.0012176 0.0000
 48 -28263.9184087164  -0.036620507042 0.00031104  0.00000302  0.0008197 0.0000
 49 -28263.8887203323   0.029688384107 0.00008351  0.00000105  0.0000289 0.0000
 50 -28263.8878838125   0.000836519779 0.00001831  0.00000042  0.0000141 0.0000
 51 -28263.8883037688  -0.000419956330 0.00001691  0.00000028  0.0000077 0.0000
 52 -28263.8882240721   0.000079696714 0.00000543  0.00000010  0.0000028 0.0000
                            ***DIIS convergence achieved***

               *****************************************************
               *                     SUCCESS                       *
               *           SCF CONVERGED AFTER  53 CYCLES          *
               *****************************************************


----------------
TOTAL SCF ENERGY
----------------

Total Energy       :       -28263.88821542 Eh         -769099.49860 eV

Components:
Nuclear Repulsion  :         1485.92071133 Eh           40433.95818 eV
Electronic Energy  :       -29749.80892675 Eh         -809533.45678 eV
One Electron Energy:       -41408.37535507 Eh        -1126779.17776 eV
Two Electron Energy:        11658.56642832 Eh          317245.72098 eV

Virial components:
Potential Energy   :       -77166.65115035 Eh        -2099811.33015 eV
Kinetic Energy     :        48902.76293493 Eh         1330711.83154 eV
Virial Ratio       :            1.57796097


---------------
SCF CONVERGENCE
---------------

  Last Energy change         ...    8.6498e-06  Tolerance :   1.0000e-08
  Last MAX-Density change    ...    2.2466e-06  Tolerance :   1.0000e-07
  Last RMS-Density change    ...    3.5583e-08  Tolerance :   5.0000e-09
  Last DIIS Error            ...    9.0426e-07  Tolerance :   5.0000e-07

             **** THE GBW FILE WAS UPDATED (/home/nikolayandreadi_2125/_scratch/MP2/ThCl4.gbw) ****
             **** DENSITY FILE WAS UPDATED (/home/nikolayandreadi_2125/_scratch/MP2/ThCl4.scfp.tmp) ****
             **** ENERGY FILE WAS UPDATED (/home/nikolayandreadi_2125/_scratch/MP2/ThCl4.en.tmp) ****
----------------
ORBITAL ENERGIES
----------------

  NO   OCC          E(Eh)            E(eV) 
   0   2.0000   -4041.180014   -109966.0987 
   1   2.0000    -756.843234    -20594.7514 
   2   2.0000    -639.278700    -17395.6578 
   3   2.0000    -639.278696    -17395.6577 
   4   2.0000    -639.278695    -17395.6577 
   5   2.0000    -192.869632     -5248.2495 
   6   2.0000    -159.370169     -4336.6828 
   7   2.0000    -159.370156     -4336.6824 
   8   2.0000    -159.370098     -4336.6808 
   9   2.0000    -126.841432     -3451.5308 
  10   2.0000    -126.841397     -3451.5299 
  11   2.0000    -126.841380     -3451.5294 
  12   2.0000    -126.841329     -3451.5280 
  13   2.0000    -126.841299     -3451.5272 
  14   2.0000    -105.202323     -2862.7007 
  15   2.0000    -105.202227     -2862.6981 
  16   2.0000    -105.202218     -2862.6979 
  17   2.0000    -105.202157     -2862.6962 
  18   2.0000     -50.201811     -1366.0607 
  19   2.0000     -38.989391     -1060.9553 
  20   2.0000     -38.989368     -1060.9547 
  21   2.0000     -38.989245     -1060.9513 
  22   2.0000     -26.546245      -722.3600 
  23   2.0000     -26.546159      -722.3577 
  24   2.0000     -26.546123      -722.3567 
  25   2.0000     -26.546008      -722.3536 
  26   2.0000     -26.545916      -722.3511 
  27   2.0000     -13.428090      -365.3969 
  28   2.0000     -13.428079      -365.3966 
  29   2.0000     -13.427986      -365.3941 
  30   2.0000     -13.427944      -365.3929 
  31   2.0000     -13.427893      -365.3915 
  32   2.0000     -13.427852      -365.3904 
  33   2.0000     -13.427839      -365.3901 
  34   2.0000     -11.605744      -315.8084 
  35   2.0000     -10.627965      -289.2016 
  36   2.0000     -10.627889      -289.1996 
  37   2.0000     -10.627879      -289.1993 
  38   2.0000     -10.627805      -289.1973 
  39   2.0000      -8.059233      -219.3029 
  40   2.0000      -8.059218      -219.3025 
  41   2.0000      -8.059160      -219.3009 
  42   2.0000      -8.029304      -218.4885 
  43   2.0000      -8.029229      -218.4864 
  44   2.0000      -8.029218      -218.4861 
  45   2.0000      -8.029144      -218.4841 
  46   2.0000      -8.028866      -218.4766 
  47   2.0000      -8.028864      -218.4765 
  48   2.0000      -8.028782      -218.4743 
  49   2.0000      -8.028778      -218.4742 
  50   2.0000      -8.028777      -218.4741 
  51   2.0000      -8.028774      -218.4740 
  52   2.0000      -8.028703      -218.4721 
  53   2.0000      -8.028699      -218.4720 
  54   2.0000      -3.873191      -105.3949 
  55   2.0000      -3.873101      -105.3924 
  56   2.0000      -3.873052      -105.3911 
  57   2.0000      -3.872452      -105.3748 
  58   2.0000      -3.872372      -105.3726 
  59   2.0000      -2.117344       -57.6158 
  60   2.0000      -1.204588       -32.7785 
  61   2.0000      -1.202949       -32.7339 
  62   2.0000      -1.202862       -32.7315 
  63   2.0000      -1.091621       -29.7045 
  64   2.0000      -1.039907       -28.2973 
  65   2.0000      -1.039800       -28.2944 
  66   2.0000      -1.037926       -28.2434 
  67   2.0000      -0.527010       -14.3407 
  68   2.0000      -0.518108       -14.0984 
  69   2.0000      -0.518078       -14.0976 
  70   2.0000      -0.516646       -14.0587 
  71   2.0000      -0.502091       -13.6626 
  72   2.0000      -0.501008       -13.6331 
  73   2.0000      -0.477237       -12.9863 
  74   2.0000      -0.476534       -12.9671 
  75   2.0000      -0.476255       -12.9596 
  76   2.0000      -0.471568       -12.8320 
  77   2.0000      -0.471378       -12.8268 
  78   2.0000      -0.471018       -12.8171 
  79   0.0000       0.014997         0.4081 
  80   0.0000       0.064975         1.7681 
  81   0.0000       0.065883         1.7928 
  82   0.0000       0.068144         1.8543 
  83   0.0000       0.069499         1.8912 
  84   0.0000       0.071629         1.9491 
  85   0.0000       0.073388         1.9970 
  86   0.0000       0.129238         3.5167 
  87   0.0000       0.129284         3.5180 
  88   0.0000       0.131896         3.5891 
  89   0.0000       0.149295         4.0625 
  90   0.0000       0.150627         4.0988 
  91   0.0000       0.158115         4.3025 
  92   0.0000       0.158643         4.3169 
  93   0.0000       0.158803         4.3213 
  94   0.0000       0.160656         4.3717 
  95   0.0000       0.161897         4.4054 
  96   0.0000       0.162165         4.4127 
  97   0.0000       0.186711         5.0807 
  98   0.0000       0.186805         5.0832 
  99   0.0000       0.187855         5.1118 
 100   0.0000       0.188011         5.1160 
 101   0.0000       0.267383         7.2759 
 102   0.0000       0.379598        10.3294 
 103   0.0000       0.380016        10.3408 
 104   0.0000       0.383082        10.4242 
 105   0.0000       0.409226        11.1356 
 106   0.0000       0.409607        11.1460 
 107   0.0000       0.413260        11.2454 
 108   0.0000       0.414799        11.2872 
 109   0.0000       0.429447        11.6859 
 110   0.0000       0.430125        11.7043 
 111   0.0000       0.433745        11.8028 
 112   0.0000       0.512773        13.9533 
 113   0.0000       0.515351        14.0234 
 114   0.0000       0.517769        14.0892 
 115   0.0000       0.526544        14.3280 
 116   0.0000       0.527314        14.3490 
 117   0.0000       0.530782        14.4433 
 118   0.0000       0.532043        14.4776 
 119   0.0000       0.533000        14.5037 
 120   0.0000       0.534220        14.5369 
 121   0.0000       0.581704        15.8290 
 122   0.0000       0.586577        15.9616 
 123   0.0000       0.587912        15.9979 
 124   0.0000       0.623269        16.9600 
 125   0.0000       0.625249        17.0139 
 126   0.0000       0.625631        17.0243 
 127   0.0000       0.626301        17.0425 
 128   0.0000       0.627905        17.0862 
 129   0.0000       0.637079        17.3358 
 130   0.0000       0.638840        17.3837 
 131   0.0000       0.644105        17.5270 
 132   0.0000       0.654289        17.8041 
 133   0.0000       0.658373        17.9152 
 134   0.0000       0.659186        17.9374 
 135   0.0000       0.717980        19.5372 
 136   0.0000       0.723241        19.6804 
 137   0.0000       0.726465        19.7681 
 138   0.0000       0.812040        22.0967 
 139   0.0000       0.812453        22.1080 
 140   0.0000       0.816760        22.2252 
 141   0.0000       0.819013        22.2865 
 142   0.0000       0.825203        22.4549 
 143   0.0000       0.831572        22.6282 
 144   0.0000       0.873975        23.7821 
 145   0.0000       0.880680        23.9645 
 146   0.0000       0.888478        24.1767 
 147   0.0000       0.964934        26.2572 
 148   0.0000       0.966237        26.2927 
 149   0.0000       0.973496        26.4902 
 150   0.0000       1.207616        32.8609 
 151   0.0000       1.207738        32.8642 
 152   0.0000       1.209270        32.9059 
 153   0.0000       1.219389        33.1813 
 154   0.0000       1.260255        34.2933 
 155   0.0000       1.260782        34.3076 
 156   0.0000       1.262657        34.3586 
 157   0.0000       1.356375        36.9088 
 158   0.0000       1.365076        37.1456 
 159   0.0000       1.366565        37.1861 
 160   0.0000       1.531020        41.6612 
 161   0.0000       1.679799        45.7097 
 162   0.0000       1.681893        45.7666 
 163   0.0000       1.682867        45.7932 
 164   0.0000       1.979313        53.8598 
 165   0.0000       1.980285        53.8863 
 166   0.0000       2.084273        56.7160 
 167   0.0000       2.084573        56.7241 
 168   0.0000       2.084854        56.7318 
 169   0.0000       2.086615        56.7797 
 170   0.0000       2.086990        56.7899 
 171   0.0000       2.096955        57.0610 
 172   0.0000       2.104009        57.2530 
 173   0.0000       2.106844        57.3302 
 174   0.0000       2.143102        58.3168 
 175   0.0000       2.145295        58.3764 
 176   0.0000       2.147409        58.4340 
 177   0.0000       2.211443        60.1764 
 178   0.0000       2.214152        60.2501 
 179   0.0000       2.219481        60.3952 
 180   0.0000       2.244471        61.0751 
 181   0.0000       2.247951        61.1699 
 182   0.0000       2.252977        61.3066 
 183   0.0000       2.258123        61.4467 
 184   0.0000       2.261426        61.5365 
 185   0.0000       2.262360        61.5620 
 186   0.0000       2.296251        62.4842 
 187   0.0000       2.296608        62.4939 
 188   0.0000       2.298977        62.5584 
 189   0.0000       2.386631        64.9435 
 190   0.0000       2.387461        64.9661 
 191   0.0000       2.387468        64.9663 
 192   0.0000       2.394681        65.1626 
 193   0.0000       2.396416        65.2098 
 194   0.0000       2.396425        65.2100 
 195   0.0000       2.396790        65.2200 
 196   0.0000       2.396836        65.2212 
 197   0.0000       2.397226        65.2318 
 198   0.0000       2.401642        65.3520 
 199   0.0000       2.414150        65.6924 
 200   0.0000       2.415748        65.7358 
 201   0.0000       2.415993        65.7425 
 202   0.0000       2.435315        66.2683 
 203   0.0000       2.435727        66.2795 
 204   0.0000       2.439210        66.3743 
 205   0.0000       2.454469        66.7895 
 206   0.0000       2.484945        67.6188 
 207   0.0000       2.485280        67.6279 
 208   0.0000       2.496954        67.9456 
 209   0.0000       2.533154        68.9306 
 210   0.0000       2.536017        69.0085 
 211   0.0000       2.542575        69.1870 
 212   0.0000       2.576769        70.1174 
 213   0.0000       2.585416        70.3527 
 214   0.0000       2.631190        71.5983 
 215   0.0000       2.648710        72.0751 
 216   0.0000       2.650254        72.1171 
 217   0.0000       2.650783        72.1315 
 218   0.0000       2.689619        73.1882 
 219   0.0000       2.693880        73.3042 
 220   0.0000       2.694352        73.3171 
 221   0.0000       2.731264        74.3215 
 222   0.0000       2.734370        74.4060 
 223   0.0000       2.736677        74.4688 
 224   0.0000       2.748762        74.7976 
 225   0.0000       2.752674        74.9041 
 226   0.0000       3.082749        83.8859 
 227   0.0000       3.204521        87.1994 
 228   0.0000       3.235280        88.0364 
 229   0.0000       3.241815        88.2143 
 230   0.0000       3.831839       104.2696 
 231   0.0000       3.839252       104.4714 
 232   0.0000       3.842373       104.5563 
 233   0.0000       3.845552       104.6428 
 234   0.0000       3.850706       104.7830 
 235   0.0000       3.853639       104.8629 
 236   0.0000       4.039152       109.9109 
 237   0.0000       5.707643       155.3129 
 238   0.0000       5.708094       155.3251 
 239   0.0000       5.708229       155.3288 
 240   0.0000       5.772114       157.0672 
 241   0.0000       8.178951       222.5606 
 242   0.0000       8.179248       222.5687 
 243   0.0000       8.183947       222.6965 
 244   0.0000       8.912680       242.5263 
 245   0.0000       8.914418       242.5736 
 246   0.0000       9.074154       246.9203 
 247   0.0000       9.089576       247.3399 
 248   0.0000       9.091678       247.3971 
 249   0.0000       9.664806       262.9927 
 250   0.0000      12.948099       352.3357 
 251   0.0000      12.949144       352.3641 
 252   0.0000      12.951165       352.4191 
 253   0.0000      12.953722       352.4887 
 254   0.0000      12.957042       352.5790 
 255   0.0000      12.957590       352.5939 
 256   0.0000      13.078207       355.8761 
 257   0.0000      22.958301       624.7271 
 258   0.0000      22.958408       624.7300 
 259   0.0000      22.958528       624.7333 
 260   0.0000      23.006589       626.0411 
 261   0.0000      44.030704      1198.1364 
 262   0.0000      45.456618      1236.9375 
 263   0.0000      45.457520      1236.9620 
 264   0.0000      45.531819      1238.9838 
 265   0.0000      45.539215      1239.1850 
 266   0.0000      45.540154      1239.2106 
 267   0.0000      46.805557      1273.6439 
 268   0.0000      46.805802      1273.6506 
 269   0.0000      46.808014      1273.7108 
 270   0.0000      49.434442      1345.1796 
 271   0.0000      49.434665      1345.1856 
 272   0.0000      49.435835      1345.2175 
 273   0.0000      49.437996      1345.2763 
 274   0.0000      49.439782      1345.3249 
 275   0.0000      49.440297      1345.3389 
 276   0.0000      49.504301      1347.0805 
 277   0.0000     138.909529      3779.9205 
 278   0.0000     138.910051      3779.9346 
 279   0.0000     138.910206      3779.9389 
 280   0.0000     138.944402      3780.8694 
 281   0.0000     201.477395      5482.4787 
 282   0.0000     226.058538      6151.3655 
 283   0.0000     226.059014      6151.3785 
 284   0.0000     226.103654      6152.5932 
 285   0.0000     226.107985      6152.7111 
 286   0.0000     226.108574      6152.7271 
 287   0.0000     256.637435      6983.4596 
 288   0.0000     256.637622      6983.4647 
 289   0.0000     256.639277      6983.5098 
 290   0.0000     773.304222     21042.6777 
 291   0.0000     884.703844     24074.0155 
 292   0.0000     884.704211     24074.0255 
 293   0.0000     884.704394     24074.0305 
 294   0.0000     884.754762     24075.4010 
 295   0.0000    1049.095560     28547.3415 
 296   0.0000    1049.095686     28547.3449 
 297   0.0000    1049.096805     28547.3754 
 298   0.0000    2368.447648     64448.7370 
 299   0.0000    3665.852063     99752.9060 
 300   0.0000    3665.852151     99752.9084 
 301   0.0000    3665.852926     99752.9295 
 302   0.0000    5948.319502    161862.0026 
 303   0.0000   12744.748553    346802.2392 
 304   0.0000   24443.709877    665147.1612 
 305   0.0000   43246.201666   1176788.9741 
 306   0.0000   83574.330749   2274173.1564 

                    ********************************
                    * MULLIKEN POPULATION ANALYSIS *
                    ********************************

-----------------------
MULLIKEN ATOMIC CHARGES
-----------------------
   0 Th:    1.922004
   1 Cl:   -0.480522
   2 Cl:   -0.480593
   3 Cl:   -0.478927
   4 Cl:   -0.481962
Sum of atomic charges:    0.0000000

--------------------------------
MULLIKEN REDUCED ORBITAL CHARGES
--------------------------------
  0 Ths       :    12.150100  s :    12.150100
      pz      :    10.044751  p :    30.132367
      px      :    10.044265
      py      :    10.043350
      dz2     :     6.284575  d :    31.344628
      dxz     :     6.238776
      dyz     :     6.274570
      dx2y2   :     6.308391
      dxy     :     6.238316
      f0      :     2.076041  f :    14.450901
      f+1     :     2.055448
      f-1     :     2.059168
      f+2     :     2.077038
      f-2     :     2.051214
      f+3     :     2.058816
      f-3     :     2.073177
  1 Cls       :     5.952793  s :     5.952793
      pz      :     3.801351  p :    11.502134
      px      :     3.855210
      py      :     3.845573
      dz2     :     0.007175  d :     0.024434
      dxz     :     0.005773
      dyz     :     0.006367
      dx2y2   :     0.002505
      dxy     :     0.002614
      f0      :     0.000224  f :     0.001162
      f+1     :     0.000199
      f-1     :     0.000266
      f+2     :     0.000188
      f-2     :     0.000209
      f+3     :     0.000039
      f-3     :     0.000036
  2 Cls       :     5.952799  s :     5.952799
      pz      :     3.801584  p :    11.502193
      px      :     3.855175
      py      :     3.845434
      dz2     :     0.007168  d :     0.024439
      dxz     :     0.005766
      dyz     :     0.006364
      dx2y2   :     0.002517
      dxy     :     0.002624
      f0      :     0.000223  f :     0.001161
      f+1     :     0.000199
      f-1     :     0.000266
      f+2     :     0.000188
      f-2     :     0.000209
      f+3     :     0.000039
      f-3     :     0.000037
  3 Cls       :     5.952793  s :     5.952793
      pz      :     3.867820  p :    11.500375
      px      :     3.857598
      py      :     3.774957
      dz2     :     0.002427  d :     0.024581
      dxz     :     0.000910
      dyz     :     0.006570
      dx2y2   :     0.007276
      dxy     :     0.007398
      f0      :     0.000125  f :     0.001178
      f+1     :     0.000038
      f-1     :     0.000173
      f+2     :     0.000125
      f-2     :     0.000087
      f+3     :     0.000318
      f-3     :     0.000312
  4 Cls       :     5.952806  s :     5.952806
      pz      :     3.868938  p :    11.503670
      px      :     3.765834
      py      :     3.868897
      dz2     :     0.002399  d :     0.024337
      dxz     :     0.007391
      dyz     :     0.000021
      dx2y2   :     0.007178
      dxy     :     0.007348
      f0      :     0.000122  f :     0.001148
      f+1     :     0.000184
      f-1     :     0.000021
      f+2     :     0.000205
      f-2     :     0.000002
      f+3     :     0.000308
      f-3     :     0.000307


                     *******************************
                     * LOEWDIN POPULATION ANALYSIS *
                     *******************************

----------------------
LOEWDIN ATOMIC CHARGES
----------------------
   0 Th:   -0.659069
   1 Cl:    0.164570
   2 Cl:    0.164535
   3 Cl:    0.168675
   4 Cl:    0.161289

-------------------------------
LOEWDIN REDUCED ORBITAL CHARGES
-------------------------------
  0 Ths       :    12.311288  s :    12.311288
      pz      :    10.190259  p :    30.574422
      px      :    10.193813
      py      :    10.190350
      dz2     :     6.512893  d :    32.407841
      dxz     :     6.422156
      dyz     :     6.491670
      dx2y2   :     6.561676
      dxy     :     6.419446
      f0      :     2.218933  f :    15.365517
      f+1     :     2.174186
      f-1     :     2.196660
      f+2     :     2.220555
      f-2     :     2.148809
      f+3     :     2.192821
      f-3     :     2.213554
  1 Cls       :     5.588044  s :     5.588044
      pz      :     3.727980  p :    11.210657
      px      :     3.742543
      py      :     3.740133
      dz2     :     0.008964  d :     0.034221
      dxz     :     0.008261
      dyz     :     0.011853
      dx2y2   :     0.001836
      dxy     :     0.003307
      f0      :     0.000254  f :     0.002507
      f+1     :     0.000522
      f-1     :     0.000822
      f+2     :     0.000228
      f-2     :     0.000561
      f+3     :     0.000075
      f-3     :     0.000045
  2 Cls       :     5.588047  s :     5.588047
      pz      :     3.728103  p :    11.210665
      px      :     3.742506
      py      :     3.740057
      dz2     :     0.008935  d :     0.034244
      dxz     :     0.008264
      dyz     :     0.011874
      dx2y2   :     0.001848
      dxy     :     0.003324
      f0      :     0.000253  f :     0.002509
      f+1     :     0.000521
      f-1     :     0.000822
      f+2     :     0.000229
      f-2     :     0.000564
      f+3     :     0.000075
      f-3     :     0.000046
  3 Cls       :     5.586575  s :     5.586575
      pz      :     3.745452  p :    11.207690
      px      :     3.743244
      py      :     3.718994
      dz2     :     0.006086  d :     0.034513
      dxz     :     0.000744
      dyz     :     0.004479
      dx2y2   :     0.012915
      dxy     :     0.010289
      f0      :     0.000135  f :     0.002547
      f+1     :     0.000096
      f-1     :     0.000611
      f+2     :     0.000133
      f-2     :     0.000104
      f+3     :     0.000917
      f-3     :     0.000552
  4 Cls       :     5.589190  s :     5.589190
      pz      :     3.747030  p :    11.212974
      px      :     3.718382
      py      :     3.747562
      dz2     :     0.005983  d :     0.034065
      dxz     :     0.005106
      dyz     :     0.000099
      dx2y2   :     0.017799
      dxy     :     0.005079
      f0      :     0.000133  f :     0.002482
      f+1     :     0.000661
      f-1     :     0.000025
      f+2     :     0.000222
      f-2     :     0.000013
      f+3     :     0.001097
      f-3     :     0.000331


                      *****************************
                      * MAYER POPULATION ANALYSIS *
                      *****************************

  NA   - Mulliken gross atomic population
  ZA   - Total nuclear charge
  QA   - Mulliken gross atomic charge
  VA   - Mayer's total valence
  BVA  - Mayer's bonded valence
  FA   - Mayer's free valence

  ATOM       NA         ZA         QA         VA         BVA        FA
  0 Th    88.0780    90.0000     1.9220     3.6156     3.6156     0.0000
  1 Cl    17.4805    17.0000    -0.4805     0.9321     0.9321     0.0000
  2 Cl    17.4806    17.0000    -0.4806     0.9320     0.9320    -0.0000
  3 Cl    17.4789    17.0000    -0.4789     0.9350     0.9350     0.0000
  4 Cl    17.4820    17.0000    -0.4820     0.9295     0.9295     0.0000

  Mayer bond orders larger than 0.1
B(  0-Th,  1-Cl) :   0.9039 B(  0-Th,  2-Cl) :   0.9038 B(  0-Th,  3-Cl) :   0.9063 
B(  0-Th,  4-Cl) :   0.9017 

-------
TIMINGS
-------

Total SCF time: 0 days 0 hours 1 min 52 sec 

Total time                  ....     112.108 sec
Sum of individual times     ....     111.469 sec  ( 99.4%)

Fock matrix formation       ....     106.441 sec  ( 94.9%)
Diagonalization             ....       2.792 sec  (  2.5%)
Density matrix formation    ....       0.097 sec  (  0.1%)
Population analysis         ....       0.055 sec  (  0.0%)
Initial guess               ....       0.050 sec  (  0.0%)
Orbital Transformation      ....       0.000 sec  (  0.0%)
Orbital Orthonormalization  ....       0.000 sec  (  0.0%)
DIIS solution               ....       2.033 sec  (  1.8%)


           ************************************************************
           *        Program running with 20 parallel MPI-processes    *
           *              working on a common directory               *
           ************************************************************

------------------------------------------------------------------------------
                                ORCA  MP2 
------------------------------------------------------------------------------

Freezing NCore=108 chemical core electrons
MP2 will be done in the AO integral direct mode
The Q1-step will be done using symmetric double matrices
Dimension of the basis                    ...  307
Memory devoted for MP2                    ... 31500 MB   
Memory needed for all in one shot         ...  222 MB
Number of MOs that can be treated together...  283      
MP2 density construction                  ... relaxed
The MP2 gradient is requested => amplitudes will be stored on disk
Total number of MOs              ...   25
Number of MOs treated per batch  ...    2 
Number of batches necessary      ...    1 
OPERATORS   0/  0 PASS   0
-----------------------------------------------
 MP2 CORRELATION ENERGY   :     -1.525255971 Eh
-----------------------------------------------


---------------------
MP2 DENSITY FORMATION
---------------------

Completing the external part of the density      ... done
Storing the unrelaxed density                    ... done

Calculating G(D)                                 ... done
Completing the Lagrangian                        ... done
Solving the Z-vector equations                   ... 

------------------------------------------------------------------------------
                           ORCA CP-SCF CALCULATION
------------------------------------------------------------------------------

Input orbitals are from        ... /home/nikolayandreadi_2125/_scratch/MP2/ThCl4.gbw
Input Perturbation             ... /home/nikolayandreadi_2125/_scratch/MP2/ThCl4.pin.tmp
Wavefunction output            ... /home/nikolayandreadi_2125/_scratch/MP2/ThCl4.pout.tmp
Perturbation mode              ... Real perturbation
Solver                         ... DIIS
   MaxDIIS                     ... 20
   Levelshift                  ...    3.000e-01 Eh
Max. number of iterations      ... 5000
Convergence tolerance          ... 1.000e-08
Integral handling              ... Direct
Number of perturbations        ... 1
Number of operators            ... 1
Orbital ranges used for CP-SCF:
 Operator 0:  Orbitals   0... 78  to  79...306
Variables per vector in CP-SCF ... 18012
Number of vectors sought       ... 1

Solving the CP-SCF equations by a DIIS algorithm

-----------------
CP-SCF ITERATIONS
-----------------
  Iteration   0: MaxR=  0.291292311
  Iteration   1: MaxR=  0.193152998
  Iteration   2: MaxR=  0.036094474
  Iteration   3: MaxR=  0.016319352
  Iteration   4: MaxR=  0.004684468
  Iteration   5: MaxR=  0.002003002
  Iteration   6: MaxR=  0.000639420
  Iteration   7: MaxR=  0.000153861
  Iteration   8: MaxR=  0.000039289
  Iteration   9: MaxR=  0.000013801
  Iteration  10: MaxR=  0.000004830
  Iteration  11: MaxR=  0.000001093
  Iteration  12: MaxR=  0.000000357
  Iteration  13: MaxR=  0.000000116
  Iteration  14: MaxR=  0.000000033
  Iteration  15: MaxR=  0.000000009
                              *** THE CP-SCF HAS CONVERGED *** 
                                                 ... done
Finalizing the relaxed density                   ... done
Transforming P to the AO basis                   ... done
Storing the relaxed density                      ... done

------------------------------------
ENERGY WEIGHTED DENSITY FINALIZATION
------------------------------------

Gathering the parts of the W-matrix              ...                                                      done
Forming the Z-density                            ... done
Transforming Z to the AO basis                   ... done
Calculating G(Z)                                 ... done
Finalizing the W-matrix                          ...                                                      done
Transforming W to the AO basis and storing       ... done

                *********************************************
                * UNRELAXED MP2 DENSITY POPULATION ANALYSIS *
                *********************************************

------------------------------------------------------------------------------
                           ORCA POPULATION ANALYSIS
------------------------------------------------------------------------------
Input electron density              ... /home/nikolayandreadi_2125/_scratch/MP2/ThCl4.pmp2ur
BaseName (.gbw .S,...)              ... /home/nikolayandreadi_2125/_scratch/MP2/ThCl4

                    ********************************
                    * MULLIKEN POPULATION ANALYSIS *
                    ********************************

-----------------------
MULLIKEN ATOMIC CHARGES
-----------------------
   0 Th:    1.866261
   1 Cl:   -0.466582
   2 Cl:   -0.466662
   3 Cl:   -0.464905
   4 Cl:   -0.468112
Sum of atomic charges:    0.0000000

--------------------------------
MULLIKEN REDUCED ORBITAL CHARGES
--------------------------------
  0 Ths       :    12.146431  s :    12.146431
      pz      :    10.016221  p :    30.046732
      px      :    10.015685
      py      :    10.014826
      dz2     :     6.289668  d :    31.372867
      dxz     :     6.245444
      dyz     :     6.279977
      dx2y2   :     6.312732
      dxy     :     6.245045
      f0      :     2.093494  f :    14.567709
      f+1     :     2.071669
      f-1     :     2.075008
      f+2     :     2.094448
      f-2     :     2.067807
      f+3     :     2.074821
      f-3     :     2.090463
  1 Cls       :     5.941689  s :     5.941689
      pz      :     3.766575  p :    11.397622
      px      :     3.820348
      py      :     3.810699
      dz2     :     0.026203  d :     0.117914
      dxz     :     0.024568
      dyz     :     0.025188
      dx2y2   :     0.020939
      dxy     :     0.021015
      f0      :     0.001447  f :     0.009358
      f+1     :     0.001395
      f-1     :     0.001477
      f+2     :     0.001366
      f-2     :     0.001382
      f+3     :     0.001147
      f-3     :     0.001144
  2 Cls       :     5.941696  s :     5.941696
      pz      :     3.766808  p :    11.397689
      px      :     3.820317
      py      :     3.810564
      dz2     :     0.026196  d :     0.117919
      dxz     :     0.024560
      dyz     :     0.025184
      dx2y2   :     0.020953
      dxy     :     0.021026
      f0      :     0.001446  f :     0.009358
      f+1     :     0.001395
      f-1     :     0.001476
      f+2     :     0.001366
      f-2     :     0.001383
      f+3     :     0.001147
      f-3     :     0.001145
  3 Cls       :     5.941684  s :     5.941684
      pz      :     3.832868  p :    11.395767
      px      :     3.822668
      py      :     3.740231
      dz2     :     0.020749  d :     0.118074
      dxz     :     0.019098
      dyz     :     0.025591
      dx2y2   :     0.026223
      dxy     :     0.026413
      f0      :     0.001254  f :     0.009379
      f+1     :     0.001116
      f-1     :     0.001356
      f+2     :     0.001296
      f-2     :     0.001252
      f+3     :     0.001552
      f-3     :     0.001554
  4 Cls       :     5.941707  s :     5.941707
      pz      :     3.834066  p :    11.399257
      px      :     3.731181
      py      :     3.834010
      dz2     :     0.020720  d :     0.117806
      dxz     :     0.026520
      dyz     :     0.018093
      dx2y2   :     0.025995
      dxy     :     0.026478
      f0      :     0.001251  f :     0.009341
      f+1     :     0.001380
      f-1     :     0.001084
      f+2     :     0.001385
      f-2     :     0.001154
      f+3     :     0.001534
      f-3     :     0.001552


                     *******************************
                     * LOEWDIN POPULATION ANALYSIS *
                     *******************************

----------------------
LOEWDIN ATOMIC CHARGES
----------------------
   0 Th:   -0.686167
   1 Cl:    0.171353
   2 Cl:    0.171308
   3 Cl:    0.175479
   4 Cl:    0.168028

-------------------------------
LOEWDIN REDUCED ORBITAL CHARGES
-------------------------------
  0 Ths       :    12.304953  s :    12.304953
      pz      :    10.161730  p :    30.488744
      px      :    10.165197
      py      :    10.161817
      dz2     :     6.514764  d :    32.421216
      dxz     :     6.426294
      dyz     :     6.494047
      dx2y2   :     6.562463
      dxy     :     6.423647
      f0      :     2.233935  f :    15.471255
      f+1     :     2.189423
      f-1     :     2.211566
      f+2     :     2.235518
      f-2     :     2.164367
      f+3     :     2.207835
      f-3     :     2.228611
  1 Cls       :     5.578376  s :     5.578376
      pz      :     3.695191  p :    11.112186
      px      :     3.709709
      py      :     3.707286
      dz2     :     0.027874  d :     0.127240
      dxz     :     0.026960
      dyz     :     0.030654
      dx2y2   :     0.020154
      dxy     :     0.021599
      f0      :     0.001493  f :     0.010845
      f+1     :     0.001745
      f-1     :     0.002078
      f+2     :     0.001420
      f-2     :     0.001766
      f+3     :     0.001187
      f-3     :     0.001156
  2 Cls       :     5.578379  s :     5.578379
      pz      :     3.695315  p :    11.112203
      px      :     3.709675
      py      :     3.707213
      dz2     :     0.027844  d :     0.127264
      dxz     :     0.026961
      dyz     :     0.030674
      dx2y2   :     0.020167
      dxy     :     0.021617
      f0      :     0.001491  f :     0.010847
      f+1     :     0.001744
      f-1     :     0.002078
      f+2     :     0.001421
      f-2     :     0.001768
      f+3     :     0.001188
      f-3     :     0.001157
  3 Cls       :     5.576913  s :     5.576913
      pz      :     3.712569  p :    11.109181
      px      :     3.710378
      py      :     3.686234
      dz2     :     0.024384  d :     0.127536
      dxz     :     0.018821
      dyz     :     0.023295
      dx2y2   :     0.031843
      dxy     :     0.029193
      f0      :     0.001272  f :     0.010891
      f+1     :     0.001182
      f-1     :     0.001827
      f+2     :     0.001312
      f-2     :     0.001273
      f+3     :     0.002200
      f-3     :     0.001825
  4 Cls       :     5.579518  s :     5.579518
      pz      :     3.714189  p :    11.114558
      px      :     3.685660
      py      :     3.714709
      dz2     :     0.024284  d :     0.127081
      dxz     :     0.024000
      dyz     :     0.018090
      dx2y2   :     0.036726
      dxy     :     0.023981
      f0      :     0.001270  f :     0.010815
      f+1     :     0.001895
      f-1     :     0.001092
      f+2     :     0.001415
      f-2     :     0.001165
      f+3     :     0.002385
      f-3     :     0.001595


                      *****************************
                      * MAYER POPULATION ANALYSIS *
                      *****************************

  NA   - Mulliken gross atomic population
  ZA   - Total nuclear charge
  QA   - Mulliken gross atomic charge
  VA   - Mayer's total valence
  BVA  - Mayer's bonded valence
  FA   - Mayer's free valence

  ATOM       NA         ZA         QA         VA         BVA        FA
  0 Th    88.1337    90.0000     1.8663     4.5126     3.3974     1.1152
  1 Cl    17.4666    17.0000    -0.4666     1.4637     0.8755     0.5882
  2 Cl    17.4667    17.0000    -0.4667     1.4635     0.8754     0.5881
  3 Cl    17.4649    17.0000    -0.4649     1.4664     0.8781     0.5883
  4 Cl    17.4681    17.0000    -0.4681     1.4611     0.8732     0.5879

  Mayer bond orders larger than 0.1
B(  0-Th,  1-Cl) :   0.8493 B(  0-Th,  2-Cl) :   0.8492 B(  0-Th,  3-Cl) :   0.8515 
B(  0-Th,  4-Cl) :   0.8474 


                *******************************************
                * RELAXED MP2 DENSITY POPULATION ANALYSIS *
                *******************************************

------------------------------------------------------------------------------
                           ORCA POPULATION ANALYSIS
------------------------------------------------------------------------------
Input electron density              ... /home/nikolayandreadi_2125/_scratch/MP2/ThCl4.pmp2re
BaseName (.gbw .S,...)              ... /home/nikolayandreadi_2125/_scratch/MP2/ThCl4

                    ********************************
                    * MULLIKEN POPULATION ANALYSIS *
                    ********************************

-----------------------
MULLIKEN ATOMIC CHARGES
-----------------------
   0 Th:    1.603637
   1 Cl:   -0.400905
   2 Cl:   -0.401029
   3 Cl:   -0.398841
   4 Cl:   -0.402862
Sum of atomic charges:    0.0000000

--------------------------------
MULLIKEN REDUCED ORBITAL CHARGES
--------------------------------
  0 Ths       :    12.182091  s :    12.182091
      pz      :    10.025127  p :    30.073359
      px      :    10.024495
      py      :    10.023737
      dz2     :     6.323771  d :    31.558572
      dxz     :     6.288075
      dyz     :     6.315546
      dx2y2   :     6.343151
      dxy     :     6.288029
      f0      :     2.100608  f :    14.582341
      f+1     :     2.070438
      f-1     :     2.072643
      f+2     :     2.101371
      f-2     :     2.068169
      f+3     :     2.072838
      f-3     :     2.096273
  1 Cls       :     5.944151  s :     5.944151
      pz      :     3.745517  p :    11.330617
      px      :     3.797287
      py      :     3.787813
      dz2     :     0.025852  d :     0.116718
      dxz     :     0.024278
      dyz     :     0.024861
      dx2y2   :     0.020828
      dxy     :     0.020900
      f0      :     0.001462  f :     0.009419
      f+1     :     0.001404
      f-1     :     0.001486
      f+2     :     0.001378
      f-2     :     0.001391
      f+3     :     0.001150
      f-3     :     0.001147
  2 Cls       :     5.944153  s :     5.944153
      pz      :     3.745762  p :    11.330731
      px      :     3.797273
      py      :     3.787697
      dz2     :     0.025846  d :     0.116725
      dxz     :     0.024271
      dyz     :     0.024858
      dx2y2   :     0.020841
      dxy     :     0.020910
      f0      :     0.001461  f :     0.009419
      f+1     :     0.001404
      f-1     :     0.001486
      f+2     :     0.001379
      f-2     :     0.001391
      f+3     :     0.001150
      f-3     :     0.001148
  3 Cls       :     5.944170  s :     5.944170
      pz      :     3.809107  p :    11.328356
      px      :     3.799453
      py      :     3.719796
      dz2     :     0.020630  d :     0.116873
      dxz     :     0.019077
      dyz     :     0.025278
      dx2y2   :     0.025840
      dxy     :     0.026048
      f0      :     0.001263  f :     0.009442
      f+1     :     0.001118
      f-1     :     0.001361
      f+2     :     0.001305
      f-2     :     0.001259
      f+3     :     0.001564
      f-3     :     0.001572
  4 Cls       :     5.944139  s :     5.944139
      pz      :     3.810626  p :    11.332703
      px      :     3.711575
      py      :     3.810502
      dz2     :     0.020599  d :     0.116620
      dxz     :     0.026178
      dyz     :     0.018111
      dx2y2   :     0.025603
      dxy     :     0.026129
      f0      :     0.001260  f :     0.009401
      f+1     :     0.001385
      f-1     :     0.001086
      f+2     :     0.001400
      f-2     :     0.001156
      f+3     :     0.001542
      f-3     :     0.001573


                     *******************************
                     * LOEWDIN POPULATION ANALYSIS *
                     *******************************

----------------------
LOEWDIN ATOMIC CHARGES
----------------------
   0 Th:   -0.838450
   1 Cl:    0.209445
   2 Cl:    0.209366
   3 Cl:    0.213766
   4 Cl:    0.205873

-------------------------------
LOEWDIN REDUCED ORBITAL CHARGES
-------------------------------
  0 Ths       :    12.321258  s :    12.321258
      pz      :    10.159828  p :    30.482576
      px      :    10.162976
      py      :    10.159772
      dz2     :     6.541493  d :    32.567044
      dxz     :     6.459843
      dyz     :     6.522131
      dx2y2   :     6.586221
      dxy     :     6.457356
      f0      :     2.238119  f :    15.467571
      f+1     :     2.185900
      f-1     :     2.206183
      f+2     :     2.239535
      f-2     :     2.163158
      f+3     :     2.203033
      f-3     :     2.231644
  1 Cls       :     5.587205  s :     5.587205
      pz      :     3.681347  p :    11.064362
      px      :     3.692486
      py      :     3.690529
      dz2     :     0.028077  d :     0.127978
      dxz     :     0.027131
      dyz     :     0.030901
      dx2y2   :     0.020196
      dxy     :     0.021673
      f0      :     0.001524  f :     0.011010
      f+1     :     0.001774
      f-1     :     0.002116
      f+2     :     0.001445
      f-2     :     0.001796
      f+3     :     0.001193
      f-3     :     0.001162
  2 Cls       :     5.587205  s :     5.587205
      pz      :     3.681476  p :    11.064414
      px      :     3.692465
      py      :     3.690472
      dz2     :     0.028047  d :     0.128004
      dxz     :     0.027134
      dyz     :     0.030923
      dx2y2   :     0.020209
      dxy     :     0.021691
      f0      :     0.001522  f :     0.011012
      f+1     :     0.001773
      f-1     :     0.002116
      f+2     :     0.001446
      f-2     :     0.001798
      f+3     :     0.001193
      f-3     :     0.001163
  3 Cls       :     5.585770  s :     5.585770
      pz      :     3.694394  p :    11.061127
      px      :     3.693070
      py      :     3.673664
      dz2     :     0.024512  d :     0.128278
      dxz     :     0.018845
      dyz     :     0.023397
      dx2y2   :     0.032104
      dxy     :     0.029420
      f0      :     0.001289  f :     0.011059
      f+1     :     0.001187
      f-1     :     0.001853
      f+2     :     0.001330
      f-2     :     0.001286
      f+3     :     0.002245
      f-3     :     0.001868
  4 Cls       :     5.588317  s :     5.588317
      pz      :     3.696165  p :    11.067009
      px      :     3.674123
      py      :     3.696721
      dz2     :     0.024410  d :     0.127823
      dxz     :     0.024121
      dyz     :     0.018100
      dx2y2   :     0.037093
      dxy     :     0.024099
      f0      :     0.001286  f :     0.010978
      f+1     :     0.001922
      f-1     :     0.001094
      f+2     :     0.001443
      f-2     :     0.001167
      f+3     :     0.002429
      f-3     :     0.001637


                      *****************************
                      * MAYER POPULATION ANALYSIS *
                      *****************************

  NA   - Mulliken gross atomic population
  ZA   - Total nuclear charge
  QA   - Mulliken gross atomic charge
  VA   - Mayer's total valence
  BVA  - Mayer's bonded valence
  FA   - Mayer's free valence

  ATOM       NA         ZA         QA         VA         BVA        FA
  0 Th    88.3964    90.0000     1.6036     4.9259     3.8270     1.0990
  1 Cl    17.4009    17.0000    -0.4009     1.5702     0.9903     0.5800
  2 Cl    17.4010    17.0000    -0.4010     1.5700     0.9901     0.5799
  3 Cl    17.3988    17.0000    -0.3988     1.5735     0.9934     0.5801
  4 Cl    17.4029    17.0000    -0.4029     1.5671     0.9873     0.5798

  Mayer bond orders larger than 0.1
B(  0-Th,  1-Cl) :   0.9567 B(  0-Th,  2-Cl) :   0.9566 B(  0-Th,  3-Cl) :   0.9595 
B(  0-Th,  4-Cl) :   0.9541 


----------------------------------
MP2 DERIVATIVE INTEGRAL GENERATION
----------------------------------


Input Wavefunction Amplitudes       ... /home/nikolayandreadi_2125/_scratch/MP2/ThCl4.mp2tsaa.tmp.proc19
Input Correlated Electron Density   ... /home/nikolayandreadi_2125/_scratch/MP2/ThCl4.pmp2re
Input Energy Weighted Density       ... /home/nikolayandreadi_2125/_scratch/MP2/ThCl4.wmp2.tmp
Input SCF Electron Density          ... /home/nikolayandreadi_2125/_scratch/MP2/ThCl4.scfp.tmp

One-Electron Terms    ...
                        ... One-Electron Terms done
Prescreening matrices              ... done

Batch handling in the gradient evaluation:
Memory available                      ... 31500.0 MB
Memory per occupied orbital in Q2     ...   18.0 MB
Memory per occupied orbital in Q3     ...    0.1 MB
Total memory requirement per |i>      ...   18.1 MB
Max. Number of orbitals possible      ...   1741
Number of orbitals treated per batch  ...     25
Number of batches to be done          ...      1
Batch   0: i=   54 ...    78

---------------------------------------
MP2 TOTAL ENERGY:   -28265.413471393 Eh
---------------------------------------

-----------------------------------
NORM OF THE MP2 GRADIENT:  0.002538
-----------------------------------

-------------------------   --------------------
FINAL SINGLE POINT ENERGY    -28265.413471392971
-------------------------   --------------------

------------------------------------------------------------------------------
                         ORCA GEOMETRY RELAXATION STEP
------------------------------------------------------------------------------

Reading the OPT-File                    .... done
Getting information on internals        .... done
Copying old internal coords+grads       .... done
Making the new internal coordinates     .... (new redundants).... done
Validating the new internal coordinates .... (new redundants).... done
Calculating the B-matrix                .... done
Calculating the G,G- and P matrices     .... done
Transforming gradient to internals      .... done
Projecting the internal gradient        .... done
Number of atoms                         ....   5
Number of internal coordinates          ....  10
Current Energy                          .... -28265.413471393 Eh
Current gradient norm                   ....     0.002538187 Eh/bohr
Maximum allowed component of the step   ....  0.300
Current trust radius                    ....  0.300
Evaluating the initial hessian          ....  (Almloef) done
Projecting the Hessian                  .... done
Forming the augmented Hessian           .... done
Diagonalizing the augmented Hessian     .... done
Last element of RFO vector              ....  0.999340282
Lowest eigenvalues of augmented Hessian:
 -0.000112150  0.063946637  0.064534444  0.064574746  0.065409350
Length of the computed step             ....  0.036342027
The final length of the internal step   ....  0.036342027
Converting the step to cartesian space:
 Initial RMS(Int)=    0.0114923580
Transforming coordinates:
 Iter   0:  RMS(Cart)=    0.0120989048 RMS(Int)=    0.0115076085
 Iter   1:  RMS(Cart)=    0.0000391208 RMS(Int)=    0.0000299307
 Iter   2:  RMS(Cart)=    0.0000001740 RMS(Int)=    0.0000001983
 Iter   3:  RMS(Cart)=    0.0000000004 RMS(Int)=    0.0000000005
done
Storing new coordinates                 .... done

                                .--------------------.
          ----------------------|Geometry convergence|-------------------------
          Item                value                   Tolerance       Converged
          ---------------------------------------------------------------------
          RMS gradient        0.0011781241            0.0001000000      NO
          MAX gradient        0.0017113517            0.0003000000      NO
          RMS step            0.0114923580            0.0020000000      NO
          MAX step            0.0203931371            0.0040000000      NO
          ........................................................
          Max(Bonds)      0.0108      Max(Angles)    0.39
          Max(Dihed)        0.00      Max(Improp)    0.00
          ---------------------------------------------------------------------

The optimization has not yet converged - more geometry cycles are needed


    ---------------------------------------------------------------------------
                         Redundant Internal Coordinates
                            (Angstroem and degrees)

        Definition                    Value    dE/dq     Step     New-Value
    ----------------------------------------------------------------------------
     1. B(Cl  1,Th  0)                2.5580 -0.000996  0.0082    2.5662   
     2. B(Cl  2,Th  0)                2.5579 -0.001084  0.0089    2.5668   
     3. B(Cl  3,Th  0)                2.5544 -0.001336  0.0108    2.5652   
     4. B(Cl  4,Th  0)                2.5605 -0.000996  0.0082    2.5688   
     5. A(Cl  1,Th  0,Cl  3)          108.89 -0.000535    0.12    109.01   
     6. A(Cl  2,Th  0,Cl  3)          109.04 -0.000380    0.09    109.13   
     7. A(Cl  1,Th  0,Cl  4)          111.25  0.001599   -0.37    110.88   
     8. A(Cl  2,Th  0,Cl  4)          111.36  0.001711   -0.39    110.97   
     9. A(Cl  3,Th  0,Cl  4)          108.14 -0.001216    0.28    108.42   
    10. A(Cl  1,Th  0,Cl  2)          108.11 -0.001242    0.29    108.40   
    ----------------------------------------------------------------------------

         *************************************************************
         *                GEOMETRY OPTIMIZATION CYCLE   2            *
         *************************************************************
---------------------------------
CARTESIAN COORDINATES (ANGSTROEM)
---------------------------------
  Th     0.015174   -0.010884   -0.000972
  Cl    -0.880245   -1.214510    2.081025
  Cl    -0.881285   -1.216565   -2.082110
  Cl    -0.837200    2.408585    0.001203
  Cl     2.583556    0.033373    0.000854

----------------------------
CARTESIAN COORDINATES (A.U.)
----------------------------
  NO LB      ZA    FRAG     MASS         X           Y           Z
   0 Th   90.0000    0   232.038    0.028675   -0.020567   -0.001837
   1 Cl   17.0000    0    35.453   -1.663421   -2.295090    3.932568
   2 Cl   17.0000    0    35.453   -1.665388   -2.298976   -3.934617
   3 Cl   17.0000    0    35.453   -1.582079    4.551567    0.002274
   4 Cl   17.0000    0    35.453    4.882213    0.063067    0.001613

--------------------------------
INTERNAL COORDINATES (ANGSTROEM)
--------------------------------
 Th     0   0   0     0.000000000000     0.00000000     0.00000000
 Cl     1   0   0     2.566165102883     0.00000000     0.00000000
 Cl     1   2   0     2.566796105690   108.39910981     0.00000000
 Cl     1   2   3     2.565224736145   109.01129797   118.67598667
 Cl     1   2   3     2.568763637341   110.87836703   237.95862346

---------------------------
INTERNAL COORDINATES (A.U.)
---------------------------
 Th     0   0   0     0.000000000000     0.00000000     0.00000000
 Cl     1   0   0     4.849349258874     0.00000000     0.00000000
 Cl     1   2   0     4.850541681370   108.39910981     0.00000000
 Cl     1   2   3     4.847572223275   109.01129797   118.67598667
 Cl     1   2   3     4.854259777351   110.87836703   237.95862346



           ************************************************************
           *        Program running with 20 parallel MPI-processes    *
           *              working on a common directory               *
           ************************************************************
------------------------------------------------------------------------------
                          ORCA RELATIVISTIC HAMILTONIAN
------------------------------------------------------------------------------

Relativistic Method            ... DKH
Order of DKH treatment         ...   2
Treatment of potential         ... V(e,N)
Eps parameter for DKH          ...   0.00000000010000
Nucleus model                  ... Point Nucleus
Speed of light used            ... 137.03598950000000


            ************************************************
            *        DOUGLAS-KROLL-HESS HAMILTONIAN        *
            *   Programmed by FN according to literature   *
            *        procedures. Special thanks to         *
            *       B.A. Hess, M. Reiher and A. Wolf       *
            *     University Erlangen-Nuernberg/Bonn       *
            ************************************************

Uncontracting the basis (first version)        ... done
Number of contracted basis functions           ...  307
Number of uncontracted basis functions         ...  505
Initializing the DKH file                      ... done
One center approximation for DKH is active
Finding unique atoms                      ... 2 atom types
 ATOMIC NUMBER  90
          ... doing integrals          ... Computing the DKH transformation
          ... Transforming V and pVp to p**2 space
          ... First transformation of V and pVp
          ... Second transformation of Veff
          ... Adding kinetic energy
          ... Back transformation of Veff to r-space
          ... Recontracting the H-matrix
          ... Computing the DKH correction to the H-matrix
          ... adding submatrics to 1 actual atoms
 ATOMIC NUMBER  17
          ... doing integrals          ... Computing the DKH transformation
          ... Transforming V and pVp to p**2 space
          ... First transformation of V and pVp
          ... Second transformation of Veff
          ... Adding kinetic energy
          ... Back transformation of Veff to r-space
          ... Recontracting the H-matrix
          ... Computing the DKH correction to the H-matrix
          ... adding submatrics to 4 actual atoms
Storing DKH matrices                           ... done
Getting S**(-1/2)                              ... done
Reading the original H-matrix                  ... done
Adding DKH correction to the H-matrix          ... done
Storing the new modified H-matrix              ... done


           ************************************************************
           *        Program running with 20 parallel MPI-processes    *
           *              working on a common directory               *
           ************************************************************

Diagonalization of the overlap matrix:
Smallest eigenvalue                        ... 4.207e-04
Time for diagonalization                   ...    0.024 sec
Threshold for overlap eigenvalues          ... 1.000e-08
Number of eigenvalues below threshold      ... 0
Time for construction of square roots      ...    0.032 sec
Total time needed                          ...    0.056 sec

--------------
SCF ITERATIONS
--------------
ITER       Energy         Delta-E        Max-DP      RMS-DP      [F,P]     Damp
               ***  Starting incremental Fock matrix formation  ***
  0 -28263.8889765161   0.000000000000 0.00092282  0.00000962  0.0222534 0.8500
  1 -28263.8889829060  -0.000006389961 0.00086565  0.00000961  0.0189160 0.8500
                               ***Turning on DIIS***
  2 -28263.8889888963  -0.000005990241 0.00505571  0.00005783  0.0160788 0.0000
  3 -28263.8890401124  -0.000051216175 0.00143472  0.00001293  0.0003372 0.0000
  4 -28263.8890905651  -0.000050452632 0.00051956  0.00000614  0.0001835 0.0000
  5 -28263.8893674642  -0.000276899111 0.00043702  0.00000437  0.0001203 0.0000
  6 -28263.8884513452   0.000916118966 0.00012649  0.00000161  0.0000456 0.0000
  7 -28263.8890350116  -0.000583666373 0.00003565  0.00000051  0.0000183 0.0000
  8 -28263.8889410434   0.000093968232 0.00000881  0.00000019  0.0000082 0.0000
  9 -28263.8890632430  -0.000122199628 0.00000390  0.00000009  0.0000038 0.0000
 10 -28263.8890430276   0.000020215379 0.00000193  0.00000004  0.0000016 0.0000
                            ***DIIS convergence achieved***

               *****************************************************
               *                     SUCCESS                       *
               *           SCF CONVERGED AFTER  11 CYCLES          *
               *****************************************************

[...]
      dyz     :     0.025282
      dx2y2   :     0.020810
      dxy     :     0.020899
      f0      :     0.001453  f :     0.009342
      f+1     :     0.001389
      f-1     :     0.001485
      f+2     :     0.001359
      f-2     :     0.001375
      f+3     :     0.001142
      f-3     :     0.001139
  2 Cls       :     5.941783  s :     5.941783
      pz      :     3.764379  p :    11.397745
      px      :     3.822498
      py      :     3.810868
      dz2     :     0.026279  d :     0.117798
      dxz     :     0.024528
      dyz     :     0.025282
      dx2y2   :     0.020810
      dxy     :     0.020899
      f0      :     0.001453  f :     0.009342
      f+1     :     0.001389
      f-1     :     0.001485
      f+2     :     0.001359
      f-2     :     0.001375
      f+3     :     0.001142
      f-3     :     0.001139
  3 Cls       :     5.941783  s :     5.941783
      pz      :     3.834128  p :    11.397765
      px      :     3.822505
      py      :     3.741132
      dz2     :     0.020732  d :     0.117796
      dxz     :     0.019083
      dyz     :     0.025488
      dx2y2   :     0.026151
      dxy     :     0.026343
      f0      :     0.001251  f :     0.009342
      f+1     :     0.001116
      f-1     :     0.001350
      f+2     :     0.001290
      f-2     :     0.001248
      f+3     :     0.001542
      f-3     :     0.001544
  4 Cls       :     5.941783  s :     5.941783
      pz      :     3.834118  p :    11.397741
      px      :     3.729500
      py      :     3.834122
      dz2     :     0.020732  d :     0.117799
      dxz     :     0.026481
      dyz     :     0.018091
      dx2y2   :     0.026014
      dxy     :     0.026481
      f0      :     0.001251  f :     0.009342
      f+1     :     0.001382
      f-1     :     0.001084
      f+2     :     0.001385
      f-2     :     0.001154
      f+3     :     0.001534
      f-3     :     0.001552


                     *******************************
                     * LOEWDIN POPULATION ANALYSIS *
                     *******************************

----------------------
LOEWDIN ATOMIC CHARGES
----------------------
   0 Th:   -0.676308
   1 Cl:    0.169097
   2 Cl:    0.169082
   3 Cl:    0.169035
   4 Cl:    0.169095

-------------------------------
LOEWDIN REDUCED ORBITAL CHARGES
-------------------------------
  0 Ths       :    12.305639  s :    12.305639
      pz      :    10.163330  p :    30.490009
      px      :    10.163329
      py      :    10.163350
      dz2     :     6.519750  d :    32.415134
      dxz     :     6.417681
      dyz     :     6.499391
      dx2y2   :     6.560613
      dxy     :     6.417698
      f0      :     2.237049  f :    15.465525
      f+1     :     2.187570
      f-1     :     2.215934
      f+2     :     2.232923
      f-2     :     2.160292
      f+3     :     2.205789
      f-3     :     2.225968
  1 Cls       :     5.579547  s :     5.579547
      pz      :     3.694391  p :    11.113675
      px      :     3.711339
      py      :     3.707945
      dz2     :     0.028121  d :     0.126884
      dxz     :     0.026464
      dyz     :     0.030833
      dx2y2   :     0.020105
      dxy     :     0.021360
      f0      :     0.001504  f :     0.010798
      f+1     :     0.001712
      f-1     :     0.002107
      f+2     :     0.001422
      f-2     :     0.001723
      f+3     :     0.001181
      f-3     :     0.001149
  2 Cls       :     5.579553  s :     5.579553
      pz      :     3.694393  p :    11.113687
      px      :     3.711343
      py      :     3.707951
      dz2     :     0.028120  d :     0.126882
      dxz     :     0.026464
      dyz     :     0.030832
      dx2y2   :     0.020105
      dxy     :     0.021360
      f0      :     0.001504  f :     0.010797
      f+1     :     0.001712
      f-1     :     0.002106
      f+2     :     0.001422
      f-2     :     0.001723
      f+3     :     0.001181
      f-3     :     0.001149
  3 Cls       :     5.579570  s :     5.579570
      pz      :     3.714745  p :    11.113721
      px      :     3.711355
      py      :     3.687621
      dz2     :     0.024268  d :     0.126877
      dxz     :     0.018807
      dyz     :     0.023218
      dx2y2   :     0.031568
      dxy     :     0.029016
      f0      :     0.001268  f :     0.010797
      f+1     :     0.001179
      f-1     :     0.001805
      f+2     :     0.001306
      f-2     :     0.001269
      f+3     :     0.002168
      f-3     :     0.001802
  4 Cls       :     5.579548  s :     5.579548
      pz      :     3.714729  p :    11.113677
      px      :     3.684218
      py      :     3.714730
      dz2     :     0.024269  d :     0.126883
      dxz     :     0.023944
      dyz     :     0.018082
      dx2y2   :     0.036644
      dxy     :     0.023944
      f0      :     0.001268  f :     0.010798
      f+1     :     0.001893
      f-1     :     0.001091
      f+2     :     0.001412
      f-2     :     0.001163
      f+3     :     0.002379
      f-3     :     0.001591


                      *****************************
                      * MAYER POPULATION ANALYSIS *
                      *****************************

  NA   - Mulliken gross atomic population
  ZA   - Total nuclear charge
  QA   - Mulliken gross atomic charge
  VA   - Mayer's total valence
  BVA  - Mayer's bonded valence
  FA   - Mayer's free valence

  ATOM       NA         ZA         QA         VA         BVA        FA
  0 Th    88.1333    90.0000     1.8667     4.5125     3.3976     1.1150
  1 Cl    17.4667    17.0000    -0.4667     1.4635     0.8753     0.5882
  2 Cl    17.4667    17.0000    -0.4667     1.4635     0.8753     0.5882
  3 Cl    17.4667    17.0000    -0.4667     1.4635     0.8753     0.5882
  4 Cl    17.4667    17.0000    -0.4667     1.4635     0.8753     0.5882

  Mayer bond orders larger than 0.1
B(  0-Th,  1-Cl) :   0.8494 B(  0-Th,  2-Cl) :   0.8494 B(  0-Th,  3-Cl) :   0.8494 
B(  0-Th,  4-Cl) :   0.8494 


                *******************************************
                * RELAXED MP2 DENSITY POPULATION ANALYSIS *
                *******************************************

------------------------------------------------------------------------------
                           ORCA POPULATION ANALYSIS
------------------------------------------------------------------------------
Input electron density              ... /home/nikolayandreadi_2125/_scratch/MP2/ThCl4.pmp2re
BaseName (.gbw .S,...)              ... /home/nikolayandreadi_2125/_scratch/MP2/ThCl4

                    ********************************
                    * MULLIKEN POPULATION ANALYSIS *
                    ********************************

-----------------------
MULLIKEN ATOMIC CHARGES
-----------------------
   0 Th:    1.604255
   1 Cl:   -0.401057
   2 Cl:   -0.401060
   3 Cl:   -0.401081
   4 Cl:   -0.401056
Sum of atomic charges:    0.0000000

--------------------------------
MULLIKEN REDUCED ORBITAL CHARGES
--------------------------------
  0 Ths       :    12.183286  s :    12.183286
      pz      :    10.025178  p :    30.075538
      px      :    10.025178
      py      :    10.025182
      dz2     :     6.325806  d :    31.556269
      dxz     :     6.285361
      dyz     :     6.317737
      dx2y2   :     6.341997
      dxy     :     6.285369
      f0      :     2.101755  f :    14.580652
      f+1     :     2.070284
      f-1     :     2.073462
      f+2     :     2.099914
      f-2     :     2.067580
      f+3     :     2.072097
      f-3     :     2.095560
  1 Cls       :     5.944262  s :     5.944262
      pz      :     3.743338  p :    11.330809
      px      :     3.799340
      py      :     3.788130
      dz2     :     0.025910  d :     0.116584
      dxz     :     0.024243
      dyz     :     0.024936
      dx2y2   :     0.020706
      dxy     :     0.020790
      f0      :     0.001468  f :     0.009402
      f+1     :     0.001398
      f-1     :     0.001494
      f+2     :     0.001372
      f-2     :     0.001383
      f+3     :     0.001145
      f-3     :     0.001142
  2 Cls       :     5.944261  s :     5.944261
      pz      :     3.743339  p :    11.330813
      px      :     3.799340
      py      :     3.788134
      dz2     :     0.025909  d :     0.116583
      dxz     :     0.024243
      dyz     :     0.024936
      dx2y2   :     0.020706
      dxy     :     0.020790
      f0      :     0.001468  f :     0.009402
      f+1     :     0.001398
      f-1     :     0.001494
      f+2     :     0.001372
      f-2     :     0.001383
      f+3     :     0.001145
      f-3     :     0.001142
  3 Cls       :     5.944261  s :     5.944261
      pz      :     3.810548  p :    11.330837
      px      :     3.799349
      py      :     3.720940
      dz2     :     0.020607  d :     0.116581
      dxz     :     0.019063
      dyz     :     0.025180
      dx2y2   :     0.025763
      dxy     :     0.025969
      f0      :     0.001260  f :     0.009402
      f+1     :     0.001117
      f-1     :     0.001355
      f+2     :     0.001299
      f-2     :     0.001256
      f+3     :     0.001553
      f-3     :     0.001562
  4 Cls       :     5.944261  s :     5.944261
      pz      :     3.810537  p :    11.330808
      px      :     3.709730
      py      :     3.810542
      dz2     :     0.020607  d :     0.116584
      dxz     :     0.026133
      dyz     :     0.018111
      dx2y2   :     0.025600
      dxy     :     0.026133
      f0      :     0.001260  f :     0.009402
      f+1     :     0.001387
      f-1     :     0.001086
      f+2     :     0.001400
      f-2     :     0.001155
      f+3     :     0.001541
      f-3     :     0.001574


                     *******************************
                     * LOEWDIN POPULATION ANALYSIS *
                     *******************************

----------------------
LOEWDIN ATOMIC CHARGES
----------------------
   0 Th:   -0.828897
   1 Cl:    0.207244
   2 Cl:    0.207229
   3 Cl:    0.207181
   4 Cl:    0.207242

-------------------------------
LOEWDIN REDUCED ORBITAL CHARGES
-------------------------------
  0 Ths       :    12.322025  s :    12.322025
      pz      :    10.161293  p :    30.483897
      px      :    10.161293
      py      :    10.161312
      dz2     :     6.546329  d :    32.561182
      dxz     :     6.451568
      dyz     :     6.527430
      dx2y2   :     6.584267
      dxy     :     6.451587
      f0      :     2.241297  f :    15.461792
      f+1     :     2.184200
      f-1     :     2.210481
      f+2     :     2.236876
      f-2     :     2.159076
      f+3     :     2.200981
      f-3     :     2.228880
  1 Cls       :     5.588376  s :     5.588376
      pz      :     3.680565  p :    11.065827
      px      :     3.693973
      py      :     3.691289
      dz2     :     0.028311  d :     0.127592
      dxz     :     0.026628
      dyz     :     0.031074
      dx2y2   :     0.020149
      dxy     :     0.021431
      f0      :     0.001536  f :     0.010961
      f+1     :     0.001740
      f-1     :     0.002146
      f+2     :     0.001448
      f-2     :     0.001752
      f+3     :     0.001186
      f-3     :     0.001154
  2 Cls       :     5.588382  s :     5.588382
      pz      :     3.680567  p :    11.065838
      px      :     3.693977
      py      :     3.691294
      dz2     :     0.028310  d :     0.127590
      dxz     :     0.026628
      dyz     :     0.031072
      dx2y2   :     0.020149
      dxy     :     0.021431
      f0      :     0.001536  f :     0.010961
      f+1     :     0.001740
      f-1     :     0.002146
      f+2     :     0.001448
      f-2     :     0.001752
      f+3     :     0.001186
      f-3     :     0.001154
  3 Cls       :     5.588398  s :     5.588398
      pz      :     3.696672  p :    11.065875
      px      :     3.693990
      py      :     3.675212
      dz2     :     0.024390  d :     0.127586
      dxz     :     0.018831
      dyz     :     0.023319
      dx2y2   :     0.031820
      dxy     :     0.029225
      f0      :     0.001285  f :     0.010960
      f+1     :     0.001184
      f-1     :     0.001830
      f+2     :     0.001323
      f-2     :     0.001281
      f+3     :     0.002212
      f-3     :     0.001844
  4 Cls       :     5.588377  s :     5.588377
      pz      :     3.696655  p :    11.065828
      px      :     3.672516
      py      :     3.696657
      dz2     :     0.024391  d :     0.127592
      dxz     :     0.024060
      dyz     :     0.018091
      dx2y2   :     0.036989
      dxy     :     0.024060
      f0      :     0.001285  f :     0.010961
      f+1     :     0.001920
      f-1     :     0.001094
      f+2     :     0.001439
      f-2     :     0.001165
      f+3     :     0.002424
      f-3     :     0.001633


                      *****************************
                      * MAYER POPULATION ANALYSIS *
                      *****************************

  NA   - Mulliken gross atomic population
  ZA   - Total nuclear charge
  QA   - Mulliken gross atomic charge
  VA   - Mayer's total valence
  BVA  - Mayer's bonded valence
  FA   - Mayer's free valence

  ATOM       NA         ZA         QA         VA         BVA        FA
  0 Th    88.3957    90.0000     1.6043     4.9255     3.8268     1.0987
  1 Cl    17.4011    17.0000    -0.4011     1.5699     0.9899     0.5800
  2 Cl    17.4011    17.0000    -0.4011     1.5699     0.9899     0.5800
  3 Cl    17.4011    17.0000    -0.4011     1.5699     0.9899     0.5800
  4 Cl    17.4011    17.0000    -0.4011     1.5699     0.9899     0.5800

  Mayer bond orders larger than 0.1
B(  0-Th,  1-Cl) :   0.9567 B(  0-Th,  2-Cl) :   0.9567 B(  0-Th,  3-Cl) :   0.9567 
B(  0-Th,  4-Cl) :   0.9567 


----------------------------------
MP2 DERIVATIVE INTEGRAL GENERATION
----------------------------------


Input Wavefunction Amplitudes       ... /home/nikolayandreadi_2125/_scratch/MP2/ThCl4.mp2tsaa.tmp.proc19
Input Correlated Electron Density   ... /home/nikolayandreadi_2125/_scratch/MP2/ThCl4.pmp2re
Input Energy Weighted Density       ... /home/nikolayandreadi_2125/_scratch/MP2/ThCl4.wmp2.tmp
Input SCF Electron Density          ... /home/nikolayandreadi_2125/_scratch/MP2/ThCl4.scfp.tmp

One-Electron Terms    ...
                        ... One-Electron Terms done
Prescreening matrices              ... done

Batch handling in the gradient evaluation:
Memory available                      ... 31500.0 MB
Memory per occupied orbital in Q2     ...   18.0 MB
Memory per occupied orbital in Q3     ...    0.1 MB
Total memory requirement per |i>      ...   18.1 MB
Max. Number of orbitals possible      ...   1741
Number of orbitals treated per batch  ...     25
Number of batches to be done          ...      1
Batch   0: i=   54 ...    78

---------------------------------------
MP2 TOTAL ENERGY:   -28265.413568718 Eh
---------------------------------------

-----------------------------------
NORM OF THE MP2 GRADIENT:  0.000012
-----------------------------------

-------------------------   --------------------
FINAL SINGLE POINT ENERGY    -28265.413568717682
-------------------------   --------------------

                                *** OPTIMIZATION RUN DONE ***

                            ***************************************
                            *     ORCA property calculations      *
                            ***************************************

                                    ---------------------
                                    Active property flags
                                    ---------------------
   (+) Dipole Moment


------------------------------------------------------------------------------
                       ORCA ELECTRIC PROPERTIES CALCULATION
------------------------------------------------------------------------------

Dipole Moment Calculation                       ... on
Quadrupole Moment Calculation                   ... off
Polarizability Calculation                      ... off
GBWName                                         ... /home/nikolayandreadi_2125/_scratch/MP2/ThCl4.gbw
Electron density file                           ... /home/nikolayandreadi_2125/_scratch/MP2/ThCl4.scfp.tmp
The origin for moment calculation is the CENTER OF MASS  = (-0.000046,  0.000095  0.000013)

-------------
DIPOLE MOMENT
-------------
                                X             Y             Z
Electronic contribution:     -0.00100       0.00207       0.00032
Nuclear contribution   :      0.00088      -0.00182      -0.00024
                        -----------------------------------------
Total Dipole Moment    :     -0.00012       0.00025       0.00008
                        -----------------------------------------
Magnitude (a.u.)       :      0.00029
Magnitude (Debye)      :      0.00073


                         *** MP2 UNRELAXED DENSITY ***

------------------------------------------------------------------------------
                       ORCA ELECTRIC PROPERTIES CALCULATION
------------------------------------------------------------------------------

Dipole Moment Calculation                       ... on
Quadrupole Moment Calculation                   ... off
Polarizability Calculation                      ... off
GBWName                                         ... /home/nikolayandreadi_2125/_scratch/MP2/ThCl4.gbw
Electron density file                           ... /home/nikolayandreadi_2125/_scratch/MP2/ThCl4.pmp2ur
The origin for moment calculation is the CENTER OF MASS  = (-0.000046,  0.000095  0.000013)

-------------
DIPOLE MOMENT
-------------
                                X             Y             Z
Electronic contribution:     -0.00100       0.00206       0.00032
Nuclear contribution   :      0.00088      -0.00182      -0.00024
                        -----------------------------------------
Total Dipole Moment    :     -0.00012       0.00024       0.00008
                        -----------------------------------------
Magnitude (a.u.)       :      0.00027
Magnitude (Debye)      :      0.00070


                           *** MP2 RELAXED DENSITY ***

------------------------------------------------------------------------------
                       ORCA ELECTRIC PROPERTIES CALCULATION
------------------------------------------------------------------------------

Dipole Moment Calculation                       ... on
Quadrupole Moment Calculation                   ... off
Polarizability Calculation                      ... off
GBWName                                         ... /home/nikolayandreadi_2125/_scratch/MP2/ThCl4.gbw
Electron density file                           ... /home/nikolayandreadi_2125/_scratch/MP2/ThCl4.pmp2re
The origin for moment calculation is the CENTER OF MASS  = (-0.000046,  0.000095  0.000013)

-------------
DIPOLE MOMENT
-------------
                                X             Y             Z
Electronic contribution:     -0.00098       0.00202       0.00031
Nuclear contribution   :      0.00088      -0.00182      -0.00024
                        -----------------------------------------
Total Dipole Moment    :     -0.00010       0.00020       0.00007
                        -----------------------------------------
Magnitude (a.u.)       :      0.00023
Magnitude (Debye)      :      0.00059


Timings for individual modules:

Sum of individual times         ...     1614.813 sec (=  26.914 min)
GTO integral calculation        ...       15.812 sec (=   0.264 min)   1.0 %
Relativistic integrals          ...        4.566 sec (=   0.076 min)   0.3 %
SCF iterations                  ...      230.323 sec (=   3.839 min)  14.3 %
MP2 module                      ...     1363.674 sec (=  22.728 min)  84.4 %
Geometry relaxation             ...        0.438 sec (=   0.007 min)   0.0 %
                             ****ORCA TERMINATED NORMALLY****
TOTAL RUN TIME: 0 days 0 hours 26 minutes 57 seconds 620 msec
