
                                 *****************
                                 * O   R   C   A *
                                 *****************

           --- An Ab Initio, DFT and Semiempirical electronic structure package ---

                  #######################################################
                  #                        -***-                        #
                  #  Department of molecular theory and spectroscopy    #
                  #              Directorship: Frank Neese              #
                  # Max Planck Institute for Chemical Energy Conversion #
                  #                  D-45470 Muelheim/Ruhr              #
                  #                       Germany                       #
                  #                                                     #
                  #                  All rights reserved                #
                  #                        -***-                        #
                  #######################################################


                         Program Version 4.0.1.2 - RELEASE -


 With contributions from (in alphabetic order):
   Daniel Aravena         : Magnetic Properties
   Michael Atanasov       : Ab Initio Ligand Field Theory
   Ute Becker             : Parallelization
   Martin Brehm           : Molecular dynamics
   Dmytro Bykov           : SCF Hessian
   Vijay G. Chilkuri      : MRCI spin determinant printing
   Dipayan Datta          : RHF DLPNO-CCSD density
   Achintya Kumar Dutta   : EOM-CC, STEOM-CC
   Dmitry Ganyushin       : Spin-Orbit,Spin-Spin,Magnetic field MRCI
   Yang Guo               : DLPNO-NEVPT2, CIM, IAO-localization
   Andreas Hansen         : Spin unrestricted coupled pair/coupled cluster methods
   Lee Huntington         : MR-EOM, pCC
   Robert Izsak           : Overlap fitted RIJCOSX, COSX-SCS-MP3, EOM
   Christian Kollmar      : KDIIS, OOCD, Brueckner-CCSD(T), CCSD density
   Simone Kossmann        : Meta GGA functionals, TD-DFT gradient, OOMP2, MP2 Hessian
   Martin Krupicka        : AUTO-CI
   Dagmar Lenk            : GEPOL surface
   Dimitrios Liakos       : Extrapolation schemes; parallel MDCI
   Dimitrios Manganas     : ROCIS; embedding schemes
   Dimitrios Pantazis     : SARC Basis sets
   Taras Petrenko         : DFT Hessian,TD-DFT gradient, ASA, ECA, R-Raman, ABS, FL, XAS/XES, NRVS
   Peter Pinski           : DLPNO-MP2
   Christoph Reimann      : Effective Core Potentials
   Marius Retegan         : Local ZFS, SOC
   Christoph Riplinger    : Optimizer, TS searches, QM/MM, DLPNO-CCSD(T), (RO)-DLPNO pert. Triples
   Tobias Risthaus        : Range-separated hybrids, TD-DFT gradient, RPA, STAB
   Michael Roemelt        : Restricted open shell CIS
   Masaaki Saitow         : Open-shell DLPNO
   Barbara Sandhoefer     : DKH picture change effects
   Kantharuban Sivalingam : CASSCF convergence, NEVPT2, FIC-MRCI
   Georgi Stoychev        : AutoAux
   Boris Wezisla          : Elementary symmetry handling
   Frank Wennmohs         : Technical directorship


 We gratefully acknowledge several colleagues who have allowed us to
 interface, adapt or use parts of their codes:
   Stefan Grimme, W. Hujo, H. Kruse,             : VdW corrections, initial TS optimization,
                  C. Bannwarth                     DFT functionals, gCP, sTDA/sTD-DF
   Ed Valeev                                     : LibInt (2-el integral package), F12 methods
   Garnet Chan, S. Sharma, J. Yang, R. Olivares  : DMRG
   Ulf Ekstrom                                   : XCFun DFT Library
   Mihaly Kallay                                 : mrcc  (arbitrary order and MRCC methods)
   Andreas Klamt, Michael Diedenhofen            : otool_cosmo (COSMO solvation model)
   Jiri Pittner, Ondrej Demel                    : Mk-CCSD
   Frank Weinhold                                : gennbo (NPA and NBO analysis)
   Christopher J. Cramer and Donald G. Truhlar   : smd solvation model


 Your calculation uses the libint2 library for the computation of 2-el integrals
 For citations please refer to: http://libint.valeyev.net

 This ORCA versions uses:
   CBLAS   interface :  Fast vector & matrix operations
   LAPACKE interface :  Fast linear algebra routines
   SCALAPACK package :  Parallel linear algebra routines


Your calculation utilizes the basis: DKH-def2-TZVP
   Exponents from def2-TZVP [F. Weigend and R. Ahlrichs, Phys. Chem. Chem. Phys. 7, 3297 (2005)],
   recontracted for DKH2 by D. A. Pantazis.

Your calculation utilizes the auxiliary basis: SARC/J 
   decontracted def2/J up to Kr:
   F. Weigend, Phys. Chem. Chem. Phys. 8, 1057 (2006)
   and SARC auxiliary basis sets beyond Kr:
   D. A. Pantazis and F. Neese, J. Chem. Theory Comput. 5, 2229 (2009).
   D. A. Pantazis, X. Y. Chen, C. R. Landis and F. Neese, J. Chem. Theory Comput. 4, 908 (2008).
   D. A. Pantazis and F. Neese, Theor. Chem. Acc. 131, 1292 (2012).
   D. A. Pantazis and F. Neese, J. Chem. Theory Comput. 7, 677 (2011).

================================================================================
                                        WARNINGS
                       Please study these warnings very carefully!
================================================================================

Warning: TCutStore was < 0. Adjusted to Thresh (uncritical)

WARNING: In scalar relativistic gradient/hessian runs we need the one-center approximation
  ===> : %rel OneCenter is turned on

WARNING: The frozen-core approximation for MP2-gradient calculations is turned on by default.

WARNING: Geometry Optimization
  ===> : Switching off AutoStart
         For restart on a previous wavefunction, please use MOREAD

WARNING: Post HF methods need fully converged wavefunctions
  ===> : Setting SCFConvForced true
         You can overwrite this default with %scf ConvForced false 


INFO   : the flag for use of LIBINT has been found!

================================================================================
                                       INPUT FILE
================================================================================
NAME = /home/nikolayandreadi_2125/_scratch/MP2/UCl4.inp
|  1> !Opt MP2 DKH-def2-TZVP DKH SARC/J SlowConv
|  2> 
|  3> %pal
|  4> nproc 20
|  5> end
|  6> 
|  7> %maxcore 31500
|  8> 
|  9> %basis
| 10> newgto U "SARC-DKH-TZVP" end
| 11> end
| 12> 
| 13> %scf
| 14> MaxIter 5000
| 15> Guess HCore
| 16> end
| 17> 
| 18> %method
| 19> Z_MaxIter 5000
| 20> end
| 21> 
| 22> * xyz 0 1
| 23>   U      0.025770   -0.023783    0.000795
| 24>   Cl    -0.866716   -1.169360    2.010967
| 25>   Cl    -0.865733   -1.168513   -2.010521
| 26>   Cl    -0.802056    2.310448   -0.000468
| 27>   Cl     2.508735    0.051207   -0.000772
| 28> **                         ****END OF INPUT****
================================================================================

                       *****************************
                       * Geometry Optimization Run *
                       *****************************

Geometry optimization settings:
Update method            Update   .... BFGS
Choice of coordinates    CoordSys .... Redundant Internals
Initial Hessian          InHess   .... Almoef's Model

Convergence Tolerances:
Energy Change            TolE     ....  5.0000e-06 Eh
Max. Gradient            TolMAXG  ....  3.0000e-04 Eh/bohr
RMS Gradient             TolRMSG  ....  1.0000e-04 Eh/bohr
Max. Displacement        TolMAXD  ....  4.0000e-03 bohr
RMS Displacement         TolRMSD  ....  2.0000e-03 bohr

------------------------------------------------------------------------------
                        ORCA OPTIMIZATION COORDINATE SETUP
------------------------------------------------------------------------------

The optimization will be done in new redundant internal coordinates
Making redundant internal coordinates   ...  (new redundants) done
Evaluating the initial hessian          ...  (Almloef) done
Evaluating the coordinates              ...  done
Calculating the B-matrix                .... done
Calculating the G-matrix                .... done
Diagonalizing the G-matrix              .... done
The first mode is                       ....    1
The number of degrees of freedom        ....    9

    -----------------------------------------------------------------
                    Redundant Internal Coordinates


    -----------------------------------------------------------------
         Definition                    Initial Value    Approx d2E/dq
    -----------------------------------------------------------------
      1. B(Cl  1,U   0)                  2.4799         0.085988   
      2. B(Cl  2,U   0)                  2.4800         0.085930   
      3. B(Cl  3,U   0)                  2.4767         0.086997   
      4. B(Cl  4,U   0)                  2.4841         0.084658   
      5. A(Cl  1,U   0,Cl  3)          108.3912         0.271844   
      6. A(Cl  2,U   0,Cl  3)          108.3284         0.271816   
      7. A(Cl  1,U   0,Cl  4)          111.9741         0.270719   
      8. A(Cl  2,U   0,Cl  4)          111.8841         0.270692   
      9. A(Cl  3,U   0,Cl  4)          107.7969         0.271200   
     10. A(Cl  1,U   0,Cl  2)          108.3488         0.271334   
    -----------------------------------------------------------------

Number of atoms                         .... 5
Number of degrees of freedom            .... 10

         *************************************************************
         *                GEOMETRY OPTIMIZATION CYCLE   1            *
         *************************************************************
---------------------------------
CARTESIAN COORDINATES (ANGSTROEM)
---------------------------------
  U      0.025770   -0.023783    0.000795
  Cl    -0.866716   -1.169360    2.010967
  Cl    -0.865733   -1.168513   -2.010521
  Cl    -0.802056    2.310448   -0.000468
  Cl     2.508735    0.051207   -0.000772

----------------------------
CARTESIAN COORDINATES (A.U.)
----------------------------
  NO LB      ZA    FRAG     MASS         X           Y           Z
   0 U    92.0000    0   238.029    0.048698   -0.044943    0.001502
   1 Cl   17.0000    0    35.453   -1.637856   -2.209770    3.800177
   2 Cl   17.0000    0    35.453   -1.635998   -2.208170   -3.799334
   3 Cl   17.0000    0    35.453   -1.515666    4.366114   -0.000884
   4 Cl   17.0000    0    35.453    4.740822    0.096767   -0.001459

--------------------------------
INTERNAL COORDINATES (ANGSTROEM)
--------------------------------
 U      0   0   0     0.000000000000     0.00000000     0.00000000
 Cl     1   0   0     2.479852695768     0.00000000     0.00000000
 Cl     1   2   0     2.480035569052   108.34876116     0.00000000
 Cl     1   2   3     2.476677581520   108.39120323   117.34927989
 Cl     1   2   3     2.484097652431   111.97410249   236.13175029

---------------------------
INTERNAL COORDINATES (A.U.)
---------------------------
 U      0   0   0     0.000000000000     0.00000000     0.00000000
 Cl     1   0   0     4.686242447468     0.00000000     0.00000000
 Cl     1   2   0     4.686588027893   108.34876116     0.00000000
 Cl     1   2   3     4.680242351096   108.39120323   117.34927989
 Cl     1   2   3     4.694264253012   111.97410249   236.13175029

---------------------
BASIS SET INFORMATION
---------------------
There are 2 groups of distinct atoms

 Group   1 Type U   : 29s20p16d12f contracted to 21s13p10d7f pattern {911111111111111111111/8111111111111/7111111111/6111111}
 Group   2 Type Cl  : 14s9p3d1f contracted to 8s4p2d1f pattern {71111111/6111/21/1}

Atom   0U    basis set group =>   1
Atom   1Cl   basis set group =>   2
Atom   2Cl   basis set group =>   2
Atom   3Cl   basis set group =>   2
Atom   4Cl   basis set group =>   2

INFORMATION: There is an auxiliary basis set but the global RI flag is NOT set

-------------------------------
AUXILIARY BASIS SET INFORMATION
-------------------------------
There are 2 groups of distinct atoms

 Group   1 Type U   : 33s10p8d6f4g2h1i contracted to 33s10p8d6f4g2h1i pattern {111111111111111111111111111111111/1111111111/11111111/111111/1111/11/1}
 Group   2 Type Cl  : 14s5p5d2f1g contracted to 14s5p5d2f1g pattern {11111111111111/11111/11111/11/1}

Atom   0U    basis set group =>   1
Atom   1Cl   basis set group =>   2
Atom   2Cl   basis set group =>   2
Atom   3Cl   basis set group =>   2
Atom   4Cl   basis set group =>   2


           ************************************************************
           *        Program running with 20 parallel MPI-processes    *
           *              working on a common directory               *
           ************************************************************
------------------------------------------------------------------------------
                           ORCA GTO INTEGRAL CALCULATION
------------------------------------------------------------------------------

                         BASIS SET STATISTICS AND STARTUP INFO

 # of primitive gaussian shells          ...  185
 # of primitive gaussian functions       ...  505
 # of contracted shells                  ...  111
 # of contracted basis functions         ...  307
 Highest angular momentum                ...    3
 Maximum contraction depth               ...    9
 Integral package used                   ... LIBINT
 Integral threshhold            Thresh   ...  2.500e-11
 Primitive cut-off              TCut     ...  2.500e-12


------------------------------ INTEGRAL EVALUATION ----------------------------


 * One electron integrals 
 Pre-screening matrix                    ... done
 Shell pair data                         ... done (   0.001 sec)

------------------------------------------------------------------------------
                          ORCA RELATIVISTIC HAMILTONIAN
------------------------------------------------------------------------------

Relativistic Method            ... DKH
Order of DKH treatment         ...   2
Treatment of potential         ... V(e,N)
Eps parameter for DKH          ...   0.00000000010000
Nucleus model                  ... Point Nucleus
Speed of light used            ... 137.03598950000000


            ************************************************
            *        DOUGLAS-KROLL-HESS HAMILTONIAN        *
            *   Programmed by FN according to literature   *
            *        procedures. Special thanks to         *
            *       B.A. Hess, M. Reiher and A. Wolf       *
            *     University Erlangen-Nuernberg/Bonn       *
            ************************************************

Uncontracting the basis (first version)        ... done
Number of contracted basis functions           ...  307
Number of uncontracted basis functions         ...  505
Initializing the DKH file                      ... done
One center approximation for DKH is active
Finding unique atoms                      ... 2 atom types
 ATOMIC NUMBER  92
          ... doing integrals          ... Computing the DKH transformation
          ... Transforming V and pVp to p**2 space
          ... First transformation of V and pVp
          ... Second transformation of Veff
          ... Adding kinetic energy
          ... Back transformation of Veff to r-space
          ... Recontracting the H-matrix
          ... Computing the DKH correction to the H-matrix
          ... adding submatrics to 1 actual atoms
 ATOMIC NUMBER  17
          ... doing integrals          ... Computing the DKH transformation
          ... Transforming V and pVp to p**2 space
          ... First transformation of V and pVp
          ... Second transformation of Veff
          ... Adding kinetic energy
          ... Back transformation of Veff to r-space
          ... Recontracting the H-matrix
          ... Computing the DKH correction to the H-matrix
          ... adding submatrics to 4 actual atoms
Storing DKH matrices                           ... done
Getting S**(-1/2)                              ... done
Reading the original H-matrix                  ... done
Adding DKH correction to the H-matrix          ... done
Storing the new modified H-matrix              ... done


           ************************************************************
           *        Program running with 20 parallel MPI-processes    *
           *              working on a common directory               *
           ************************************************************
-------------------------------------------------------------------------------
                                 ORCA SCF
-------------------------------------------------------------------------------

------------
SCF SETTINGS
------------
Hamiltonian:
 Ab initio Hamiltonian  Method          .... Hartree-Fock(GTOs)

Relativistic Settings:
 Scalar relativistic method             .... Douglas-Kroll-Hess
 Order of DKH procedure    Order        ....    2
 Mode of DKH-treatment                  .... V=V(e,N)
 Speed of light used       Velit        ....       137.035989
 Cutoff-constant           Eps          ....            1e-10 


General Settings:
 Integral files         IntName         .... /home/nikolayandreadi_2125/_scratch/MP2/UCl4
 Hartree-Fock type      HFTyp           .... RHF
 Total Charge           Charge          ....    0
 Multiplicity           Mult            ....    1
 Number of Electrons    NEL             ....  160
 Basis Dimension        Dim             ....  307
 Nuclear Repulsion      ENuc            ....   1561.4439073884 Eh

Convergence Acceleration:
 DIIS                   CNVDIIS         .... on
   Start iteration      DIISMaxIt       ....     0
   Startup error        DIISStart       ....  0.200000
   # of expansion vecs  DIISMaxEq       ....     5
   Bias factor          DIISBfac        ....   1.050
   Max. coefficient     DIISMaxC        ....  10.000
 Newton-Raphson         CNVNR           .... off
 SOSCF                  CNVSOSCF        .... off
 Level Shifting         CNVShift        .... on
   Level shift para.    LevelShift      ....    0.2500
   Turn off err/grad.   ShiftErr        ....    0.0000
 Zerner damping         CNVZerner       .... off
 Static damping         CNVDamp         .... on
   Fraction old density DampFac         ....    0.8500
   Max. Damping (<1)    DampMax         ....    0.9800
   Min. Damping (>=0)   DampMin         ....    0.0000
   Turn off err/grad.   DampErr         ....    0.0300
 Fernandez-Rico         CNVRico         .... off

SCF Procedure:
 Maximum # iterations   MaxIter         ....  5000
 SCF integral mode      SCFMode         .... Direct
   Integral package                     .... LIBINT
 Reset frequeny         DirectResetFreq ....    20
 Integral Threshold     Thresh          ....  2.500e-11 Eh
 Primitive CutOff       TCut            ....  2.500e-12 Eh

Convergence Tolerance:
 Convergence Check Mode ConvCheckMode   .... Total+1el-Energy
 Convergence forced     ConvForced      .... 1
 Energy Change          TolE            ....  1.000e-08 Eh
 1-El. energy change                    ....  1.000e-05 Eh
 DIIS Error             TolErr          ....  5.000e-07


Diagonalization of the overlap matrix:
Smallest eigenvalue                        ... 4.184e-04
Time for diagonalization                   ...    0.022 sec
Threshold for overlap eigenvalues          ... 1.000e-08
Number of eigenvalues below threshold      ... 0
Time for construction of square roots      ...    0.014 sec
Total time needed                          ...    0.037 sec

--------------------
INITIAL GUESS: HCORE
--------------------
                      -----------------
                      INTIAL GUESS DONE 
                      -----------------
--------------
SCF ITERATIONS
--------------
ITER       Energy         Delta-E        Max-DP      RMS-DP      [F,P]     Damp
               ***  Starting incremental Fock matrix formation  ***
  0 -22177.0907265984   0.00000000000022.72794127  0.18118016 74.0939448 0.8500
  1 -24396.5482097092-2219.45748311081819.32110017  0.14873147 60.2721683 0.8500
                               ***Turning on DIIS***
  2 -25770.9898095372-1374.44159982796916.42308864  0.12638570 49.4693800 0.8500
  3 -28686.0374213472-2915.04761180994712.57541483  0.10378438 40.6137903 0.8500
  4 -28769.6409872266 -83.60356587940611.43454108  0.08892031 34.0706079 0.8500
  5 -28980.6464123618-211.005425135274 9.71660220  0.07565813 28.7706849 0.8500
  6 -29106.2675219655-125.621109603671 8.29638433  0.06442312 24.3690063 0.8500
  7 -28993.5616262362 112.705895729283 7.37378357  0.05559856 20.6600388 0.8500
  8 -29245.9964296674-252.434803431213 6.08970374  0.04679237 17.4758415 0.8500
  9 -29343.8314295190 -97.834999851570 5.12563273  0.03966702 14.8126165 0.8500
 10 -29399.4518911007 -55.620461581668 4.36392070  0.03373140 12.5682323 0.8500
 11 -29444.8513916334 -45.399500532712 3.72182583  0.02869845 10.6663426 0.8500
 12 -29485.1545134718 -40.303121838446 3.17249053  0.02441276  9.0517796 0.8500
 13 -29533.7461723212 -48.591658849324 2.68778920  0.02073145  7.6803951 0.8500
 14 -29573.8523742822 -40.106201961058 2.27942248  0.01761026  6.5178248 0.8500
 15 -29604.6327534931 -30.780379210933 1.93768931  0.01496908  5.5314472 0.8500
 16 -29629.8242571830 -25.191503689894 1.64855506  0.01272720  4.6939190 0.8500
 17 -29651.8073056024 -21.983048419388 1.40192213  0.01081983  3.9826690 0.8500
 18 -29671.5512693568 -19.743963754354 1.19102006  0.00919577  3.3787475 0.8500
 19 -29688.7891208790 -17.237851522168 1.01144125  0.00781455  2.8660818 0.8500
               *** Restarting incremental Fock matrix formation ***
                                   *** Resetting DIIS ***
 20 -29611.0500636359  77.739057243012 0.97286304  0.00700024  2.4309572 0.8500
 21 -29681.6690339908 -70.618970354873 0.74633196  0.00568785  2.0053746 0.8500
 22 -29714.7987459368 -33.129711946011 0.59601681  0.00475467  1.6754470 0.8500
 23 -29729.3747878346 -14.576041897762 0.49797426  0.00403043  1.4108360 0.8500
 24 -29738.1155832676  -8.740795433027 0.42424523  0.00342682  1.1932783 0.8500
 25 -29742.4284019783  -4.312818710689 0.36662976  0.00292096  1.0116454 0.8500
 26 -29748.0086436415  -5.580241663232 0.31448457  0.00248755  0.8579937 0.8500
 27 -29754.8954092886  -6.886765647047 0.26688023  0.00211409  0.7275424 0.8500
 28 -29760.9531527972  -6.057743508580 0.22616813  0.00179626  0.6169375 0.8500
 29 -29765.7517683731  -4.798615575954 0.19213620  0.00152705  0.5231775 0.8500
 30 -29769.5587767641  -3.807008390962 0.16359485  0.00129884  0.4436762 0.8500
 31 -29772.7991791395  -3.240402375435 0.13930595  0.00110477  0.3762519 0.8500
 32 -29775.6716955701  -2.872516430631 0.11848930  0.00093948  0.3190700 0.8500
 33 -29778.1855841011  -2.513888530957 0.10070923  0.00079879  0.2705800 0.8500
 34 -29780.3364662214  -2.150882120273 0.08559642  0.00067917  0.2294634 0.8500
 35 -29782.1587350678  -1.822268846434 0.07277312  0.00057750  0.1945980 0.8500
 36 -29783.7083083043  -1.549573236487 0.06188130  0.00049109  0.1650319 0.8500
 37 -29785.0349184201  -1.326610115764 0.05261714  0.00041760  0.1399589 0.8500
 38 -29786.1731949508  -1.138276530757 0.04473489  0.00035511  0.1186963 0.8500
 39 -29787.1481488825  -0.974953931654 0.03803159  0.00030197  0.1006650 0.8500
               *** Restarting incremental Fock matrix formation ***
                                   *** Resetting DIIS ***
 40 -29785.8392673980   1.308881484460 0.03516283  0.00026258  0.0853738 0.8500
 41 -29787.8843219852  -2.045054587143 0.02773419  0.00021822  0.0706131 0.8500
 42 -29789.1454438131  -1.261121827938 0.02249311  0.00018380  0.0590468 0.8500
 43 -29789.7761623910  -0.630718577937 0.01898843  0.00015628  0.0498097 0.8500
 44 -29790.1934481682  -0.417285777126 0.01628020  0.00013323  0.0422071 0.8500
 45 -29790.4538934030  -0.260445234846 0.01410811  0.00011383  0.0358304 0.8500
 46 -29790.7635179425  -0.309624539485 0.01209852  0.00009711  0.0303989 0.8500
 47 -29791.0904593624  -0.326941419880 0.06852659  0.00055125  0.0257801 0.0000
 48 -29792.8605236795  -1.770064317137 0.00076466  0.00001201  0.0008327 0.0000
 49 -29792.8834984980  -0.022974818461 0.00092945  0.00000949  0.0006262 0.0000
 50 -29792.8517415554   0.031756942550 0.00103697  0.00001180  0.0005586 0.0000
 51 -29792.8594833472  -0.007741791756 0.00032049  0.00000737  0.0005361 0.0000
 52 -29792.8611285627  -0.001645215481 0.00030963  0.00000637  0.0005159 0.0000
 53 -29792.8594959907   0.001632571973 0.00042819  0.00000843  0.0004961 0.0000
 54 -29792.8609117215  -0.001415730869 0.00072590  0.00001415  0.0004784 0.0000
 55 -29792.8614052775  -0.000493555937 0.00056224  0.00001091  0.0004627 0.0000
 56 -29792.8616757427  -0.000270465247 0.00160992  0.00003144  0.0004279 0.0000
 57 -29792.8618023966  -0.000126653875 0.00047455  0.00000999  0.0004137 0.0000
 58 -29792.8618546709  -0.000052274263 0.00237430  0.00004674  0.0003375 0.0000
 59 -29792.8634519654  -0.001597294569 0.00107374  0.00002113  0.0003626 0.0000
               *** Restarting incremental Fock matrix formation ***
                                   *** Resetting DIIS ***
 60 -29792.8617959257   0.001656039738 0.00008104  0.00000235  0.0002434 0.0000
 61 -29792.8618543722  -0.000058446483 0.00005353  0.00000136  0.0001662 0.0000
 62 -29792.8612630330   0.000591339187 0.00006880  0.00000156  0.0001563 0.0000
 63 -29792.8618263880  -0.000563354988 0.00008918  0.00000188  0.0001547 0.0000
 64 -29792.8615885792   0.000237808807 0.00012718  0.00000257  0.0001550 0.0000
 65 -29792.8621580133  -0.000569434123 0.00022939  0.00000457  0.0001490 0.0000
 66 -29792.8619678696   0.000190143692 0.00020024  0.00000391  0.0001452 0.0000
 67 -29792.8622079173  -0.000240047721 0.00038514  0.00000753  0.0001349 0.0000
 68 -29792.8624405462  -0.000232628856 0.00004991  0.00000129  0.0001279 0.0000
 69 -29792.8614649738   0.000975572344 0.00061059  0.00001203  0.0001038 0.0000
 70 -29792.8619495861  -0.000484612239 0.00028222  0.00000553  0.0001113 0.0000
 71 -29792.8615633339   0.000386252152 0.00049295  0.00000967  0.0000779 0.0000
 72 -29792.8617913570  -0.000228023036 0.00013410  0.00000266  0.0000766 0.0000
 73 -29792.8617119907   0.000079366273 0.00029366  0.00000580  0.0000400 0.0000
 74 -29792.8613793169   0.000332673764 0.00014936  0.00000296  0.0000473 0.0000
 75 -29792.8616469644  -0.000267647483 0.00007990  0.00000161  0.0000266 0.0000
 76 -29792.8616675042  -0.000020539755 0.00004524  0.00000092  0.0000151 0.0000
 77 -29792.8617483724  -0.000080868267 0.00000723  0.00000019  0.0000093 0.0000
 78 -29792.8617934975  -0.000045125045 0.00001057  0.00000020  0.0000035 0.0000
 79 -29792.8618333550  -0.000039857507 0.00001304  0.00000025  0.0000026 0.0000
               *** Restarting incremental Fock matrix formation ***
                                   *** Resetting DIIS ***
 80 -29792.8618039938   0.000029361185 0.00000106  0.00000003  0.0000019 0.0000
 81 -29792.8618010272   0.000002966641 0.00000048  0.00000001  0.0000011 0.0000
                            ***DIIS convergence achieved***

               *****************************************************
               *                     SUCCESS                       *
               *           SCF CONVERGED AFTER  82 CYCLES          *
               *****************************************************


----------------
TOTAL SCF ENERGY
----------------

Total Energy       :       -29792.86181040 Eh         -810704.98531 eV

Components:
Nuclear Repulsion  :         1561.44390739 Eh           42489.04882 eV
Electronic Energy  :       -31354.30571778 Eh         -853194.03413 eV
One Electron Energy:       -43597.19799768 Eh        -1186340.06988 eV
Two Electron Energy:        12242.89227989 Eh          333146.03575 eV

Virial components:
Potential Energy   :       -83440.19426767 Eh        -2270523.11719 eV
Kinetic Energy     :        53647.33245728 Eh         1459818.13188 eV
Virial Ratio       :            1.55534657


---------------
SCF CONVERGENCE
---------------

  Last Energy change         ...   -9.3693e-06  Tolerance :   1.0000e-08
  Last MAX-Density change    ...    3.4691e-07  Tolerance :   1.0000e-07
  Last RMS-Density change    ...    8.6502e-09  Tolerance :   5.0000e-09
  Last DIIS Error            ...    9.5026e-07  Tolerance :   5.0000e-07

             **** THE GBW FILE WAS UPDATED (/home/nikolayandreadi_2125/_scratch/MP2/UCl4.gbw) ****
             **** DENSITY FILE WAS UPDATED (/home/nikolayandreadi_2125/_scratch/MP2/UCl4.scfp.tmp) ****
             **** ENERGY FILE WAS UPDATED (/home/nikolayandreadi_2125/_scratch/MP2/UCl4.en.tmp) ****
----------------
ORBITAL ENERGIES
----------------

  NO   OCC          E(Eh)            E(eV) 
   0   2.0000   -4260.567180   -115935.9270 
   1   2.0000    -804.514795    -21891.9605 
   2   2.0000    -675.170848    -18372.3328 
   3   2.0000    -675.170766    -18372.3306 
   4   2.0000    -675.170660    -18372.3277 
   5   2.0000    -206.559192     -5620.7614 
   6   2.0000    -169.940605     -4624.3189 
   7   2.0000    -169.940352     -4624.3121 
   8   2.0000    -169.939943     -4624.3009 
   9   2.0000    -135.373340     -3683.6958 
  10   2.0000    -135.373229     -3683.6928 
  11   2.0000    -135.373121     -3683.6899 
  12   2.0000    -135.369328     -3683.5867 
  13   2.0000    -135.369281     -3683.5854 
  14   2.0000    -105.209105     -2862.8853 
  15   2.0000    -105.209051     -2862.8838 
  16   2.0000    -105.208976     -2862.8818 
  17   2.0000    -105.208819     -2862.8775 
  18   2.0000     -54.537087     -1484.0296 
  19   2.0000     -42.296259     -1150.9397 
  20   2.0000     -42.295781     -1150.9267 
  21   2.0000     -42.294991     -1150.9052 
  22   2.0000     -29.057524      -790.6954 
  23   2.0000     -29.057367      -790.6912 
  24   2.0000     -29.051503      -790.5316 
  25   2.0000     -29.051033      -790.5188 
  26   2.0000     -29.050587      -790.5067 
  27   2.0000     -15.299277      -416.3145 
  28   2.0000     -15.274268      -415.6340 
  29   2.0000     -15.274229      -415.6329 
  30   2.0000     -15.274102      -415.6294 
  31   2.0000     -15.268191      -415.4686 
  32   2.0000     -15.267585      -415.4521 
  33   2.0000     -15.267117      -415.4394 
  34   2.0000     -12.834668      -349.2491 
  35   2.0000     -10.634774      -289.3869 
  36   2.0000     -10.634715      -289.3853 
  37   2.0000     -10.634627      -289.3829 
  38   2.0000     -10.634476      -289.3788 
  39   2.0000      -8.918524      -242.6854 
  40   2.0000      -8.917614      -242.6606 
  41   2.0000      -8.916358      -242.6264 
  42   2.0000      -8.036097      -218.6733 
  43   2.0000      -8.036038      -218.6717 
  44   2.0000      -8.035950      -218.6693 
  45   2.0000      -8.035798      -218.6652 
  46   2.0000      -8.035610      -218.6601 
  47   2.0000      -8.035607      -218.6600 
  48   2.0000      -8.035552      -218.6585 
  49   2.0000      -8.035548      -218.6584 
  50   2.0000      -8.035470      -218.6562 
  51   2.0000      -8.035468      -218.6562 
  52   2.0000      -8.035307      -218.6518 
  53   2.0000      -8.035303      -218.6517 
  54   2.0000      -4.399345      -119.7123 
  55   2.0000      -4.399335      -119.7120 
  56   2.0000      -4.399331      -119.7119 
  57   2.0000      -4.369581      -118.9024 
  58   2.0000      -4.369517      -118.9006 
  59   2.0000      -2.316835       -63.0443 
  60   2.0000      -1.282616       -34.9017 
  61   2.0000      -1.280633       -34.8478 
  62   2.0000      -1.279457       -34.8158 
  63   2.0000      -1.100391       -29.9432 
  64   2.0000      -1.061668       -28.8895 
  65   2.0000      -1.061536       -28.8859 
  66   2.0000      -1.059791       -28.8384 
  67   2.0000      -0.565649       -15.3921 
  68   2.0000      -0.527378       -14.3507 
  69   2.0000      -0.527363       -14.3503 
  70   2.0000      -0.525708       -14.3052 
  71   2.0000      -0.510583       -13.8937 
  72   2.0000      -0.509240       -13.8571 
  73   2.0000      -0.481582       -13.1045 
  74   2.0000      -0.480300       -13.0696 
  75   2.0000      -0.479976       -13.0608 
  76   2.0000      -0.478030       -13.0079 
  77   2.0000      -0.477617       -12.9966 
  78   2.0000      -0.477318       -12.9885 
  79   2.0000      -0.446926       -12.1615 
  80   0.0000       0.023911         0.6507 
  81   0.0000       0.061382         1.6703 
  82   0.0000       0.064115         1.7446 
  83   0.0000       0.065316         1.7773 
  84   0.0000       0.069542         1.8923 
  85   0.0000       0.070918         1.9298 
  86   0.0000       0.091370         2.4863 
  87   0.0000       0.092561         2.5187 
  88   0.0000       0.093296         2.5387 
  89   0.0000       0.107971         2.9380 
  90   0.0000       0.108568         2.9543 
  91   0.0000       0.108847         2.9619 
  92   0.0000       0.109518         2.9801 
  93   0.0000       0.157731         4.2921 
  94   0.0000       0.159551         4.3416 
  95   0.0000       0.165622         4.5068 
  96   0.0000       0.167232         4.5506 
  97   0.0000       0.167440         4.5563 
  98   0.0000       0.171570         4.6687 
  99   0.0000       0.172299         4.6885 
 100   0.0000       0.172827         4.7029 
 101   0.0000       0.255141         6.9427 
 102   0.0000       0.379163        10.3175 
 103   0.0000       0.379705        10.3323 
 104   0.0000       0.383166        10.4265 
 105   0.0000       0.406637        11.0652 
 106   0.0000       0.414382        11.2759 
 107   0.0000       0.416001        11.3200 
 108   0.0000       0.419441        11.4136 
 109   0.0000       0.432558        11.7705 
 110   0.0000       0.432873        11.7791 
 111   0.0000       0.434767        11.8306 
 112   0.0000       0.517987        14.0951 
 113   0.0000       0.521847        14.2002 
 114   0.0000       0.526836        14.3359 
 115   0.0000       0.533471        14.5165 
 116   0.0000       0.534951        14.5568 
 117   0.0000       0.537507        14.6263 
 118   0.0000       0.539886        14.6911 
 119   0.0000       0.544094        14.8056 
 120   0.0000       0.546535        14.8720 
 121   0.0000       0.581890        15.8340 
 122   0.0000       0.589015        16.0279 
 123   0.0000       0.590771        16.0757 
 124   0.0000       0.623898        16.9771 
 125   0.0000       0.629044        17.1171 
 126   0.0000       0.630433        17.1550 
 127   0.0000       0.630662        17.1612 
 128   0.0000       0.632088        17.2000 
 129   0.0000       0.647248        17.6125 
 130   0.0000       0.649369        17.6702 
 131   0.0000       0.664728        18.0882 
 132   0.0000       0.686724        18.6867 
 133   0.0000       0.690406        18.7869 
 134   0.0000       0.693389        18.8681 
 135   0.0000       0.730779        19.8855 
 136   0.0000       0.738998        20.1092 
 137   0.0000       0.743455        20.2304 
 138   0.0000       0.828941        22.5566 
 139   0.0000       0.829221        22.5643 
 140   0.0000       0.834929        22.7196 
 141   0.0000       0.846132        23.0244 
 142   0.0000       0.853745        23.2316 
 143   0.0000       0.867242        23.5989 
 144   0.0000       0.890072        24.2201 
 145   0.0000       0.899186        24.4681 
 146   0.0000       0.912645        24.8343 
 147   0.0000       0.999630        27.2013 
 148   0.0000       1.002001        27.2658 
 149   0.0000       1.011725        27.5304 
 150   0.0000       1.224348        33.3162 
 151   0.0000       1.225174        33.3387 
 152   0.0000       1.227817        33.4106 
 153   0.0000       1.237191        33.6657 
 154   0.0000       1.318660        35.8826 
 155   0.0000       1.318695        35.8835 
 156   0.0000       1.320466        35.9317 
 157   0.0000       1.401029        38.1239 
 158   0.0000       1.409630        38.3580 
 159   0.0000       1.413292        38.4576 
 160   0.0000       1.568412        42.6787 
 161   0.0000       1.707147        46.4538 
 162   0.0000       1.710022        46.5321 
 163   0.0000       1.712764        46.6067 
 164   0.0000       2.007172        54.6179 
 165   0.0000       2.008672        54.6587 
 166   0.0000       2.080189        56.6048 
 167   0.0000       2.080520        56.6138 
 168   0.0000       2.081132        56.6305 
 169   0.0000       2.084239        56.7150 
 170   0.0000       2.084600        56.7249 
 171   0.0000       2.134127        58.0725 
 172   0.0000       2.140384        58.2428 
 173   0.0000       2.140464        58.2450 
 174   0.0000       2.151837        58.5545 
 175   0.0000       2.152372        58.5690 
 176   0.0000       2.154479        58.6264 
 177   0.0000       2.209773        60.1310 
 178   0.0000       2.212897        60.2160 
 179   0.0000       2.221113        60.4395 
 180   0.0000       2.250077        61.2277 
 181   0.0000       2.253179        61.3121 
 182   0.0000       2.258094        61.4459 
 183   0.0000       2.269551        61.7576 
 184   0.0000       2.272798        61.8460 
 185   0.0000       2.277430        61.9720 
 186   0.0000       2.307474        62.7895 
 187   0.0000       2.307827        62.7992 
 188   0.0000       2.309754        62.8516 
 189   0.0000       2.380935        64.7885 
 190   0.0000       2.381846        64.8133 
 191   0.0000       2.381867        64.8139 
 192   0.0000       2.389241        65.0146 
 193   0.0000       2.391416        65.0737 
 194   0.0000       2.391538        65.0771 
 195   0.0000       2.392051        65.0910 
 196   0.0000       2.397721        65.2453 
 197   0.0000       2.399275        65.2876 
 198   0.0000       2.400716        65.3268 
 199   0.0000       2.416239        65.7492 
 200   0.0000       2.418917        65.8221 
 201   0.0000       2.419606        65.8408 
 202   0.0000       2.448568        66.6289 
 203   0.0000       2.450713        66.6873 
 204   0.0000       2.455259        66.8110 
 205   0.0000       2.468426        67.1693 
 206   0.0000       2.517679        68.5095 
 207   0.0000       2.518227        68.5244 
 208   0.0000       2.532255        68.9062 
 209   0.0000       2.556631        69.5695 
 210   0.0000       2.561191        69.6936 
 211   0.0000       2.570363        69.9431 
 212   0.0000       2.622590        71.3643 
 213   0.0000       2.632391        71.6310 
 214   0.0000       2.651883        72.1614 
 215   0.0000       2.652256        72.1715 
 216   0.0000       2.653318        72.2005 
 217   0.0000       2.660095        72.3849 
 218   0.0000       2.680540        72.9412 
 219   0.0000       2.687577        73.1327 
 220   0.0000       2.688731        73.1641 
 221   0.0000       2.730501        74.3007 
 222   0.0000       2.733689        74.3874 
 223   0.0000       2.777619        75.5829 
 224   0.0000       2.792732        75.9941 
 225   0.0000       2.804534        76.3152 
 226   0.0000       3.153422        85.8090 
 227   0.0000       3.309863        90.0660 
 228   0.0000       3.346664        91.0673 
 229   0.0000       3.362282        91.4923 
 230   0.0000       4.035542       109.8127 
 231   0.0000       4.047430       110.1362 
 232   0.0000       4.054885       110.3390 
 233   0.0000       4.060048       110.4795 
 234   0.0000       4.065185       110.6193 
 235   0.0000       4.070553       110.7654 
 236   0.0000       4.252945       115.7285 
 237   0.0000       5.694072       154.9436 
 238   0.0000       5.695222       154.9749 
 239   0.0000       5.697564       155.0386 
 240   0.0000       5.798704       157.7907 
 241   0.0000       8.226326       223.8497 
 242   0.0000       8.226662       223.8589 
 243   0.0000       8.231580       223.9927 
 244   0.0000       9.037301       245.9175 
 245   0.0000       9.039336       245.9728 
 246   0.0000       9.231470       251.2011 
 247   0.0000       9.250423       251.7168 
 248   0.0000       9.257541       251.9105 
 249   0.0000       9.644900       262.4511 
 250   0.0000      13.719644       373.3305 
 251   0.0000      13.724154       373.4532 
 252   0.0000      13.729352       373.5947 
 253   0.0000      13.731506       373.6533 
 254   0.0000      13.731791       373.6610 
 255   0.0000      13.735074       373.7504 
 256   0.0000      13.864325       377.2675 
 257   0.0000      22.945485       624.3784 
 258   0.0000      22.946402       624.4033 
 259   0.0000      22.948553       624.4619 
 260   0.0000      23.022764       626.4813 
 261   0.0000      44.230262      1203.5666 
 262   0.0000      46.794151      1273.3336 
 263   0.0000      46.795224      1273.3628 
 264   0.0000      46.876733      1275.5808 
 265   0.0000      46.884794      1275.8001 
 266   0.0000      46.887880      1275.8841 
 267   0.0000      47.492682      1292.3416 
 268   0.0000      47.493849      1292.3733 
 269   0.0000      47.496653      1292.4496 
 270   0.0000      53.291160      1450.1262 
 271   0.0000      53.293320      1450.1850 
 272   0.0000      53.295693      1450.2495 
 273   0.0000      53.296996      1450.2850 
 274   0.0000      53.297162      1450.2895 
 275   0.0000      53.298447      1450.3245 
 276   0.0000      53.365095      1452.1381 
 277   0.0000     138.898507      3779.6205 
 278   0.0000     138.899067      3779.6358 
 279   0.0000     138.900453      3779.6735 
 280   0.0000     138.956454      3781.1973 
 281   0.0000     205.112044      5581.3825 
 282   0.0000     236.037526      6422.9076 
 283   0.0000     236.038097      6422.9232 
 284   0.0000     236.090500      6424.3491 
 285   0.0000     236.095813      6424.4937 
 286   0.0000     236.097847      6424.5490 
 287   0.0000     264.424322      7195.3516 
 288   0.0000     264.424548      7195.3577 
 289   0.0000     264.426489      7195.4106 
 290   0.0000     792.556975     21566.5717 
 291   0.0000     884.689613     24073.6282 
 292   0.0000     884.690714     24073.6582 
 293   0.0000     884.693143     24073.7243 
 294   0.0000     884.774648     24075.9422 
 295   0.0000    1085.745185     29544.6285 
 296   0.0000    1085.745319     29544.6322 
 297   0.0000    1085.746576     29544.6663 
 298   0.0000    2430.777064     66144.8067 
 299   0.0000    3783.473636    102953.5517 
 300   0.0000    3783.473725    102953.5541 
 301   0.0000    3783.474563    102953.5769 
 302   0.0000    6095.760642    165874.0799 
 303   0.0000   13027.375646    354492.9134 
 304   0.0000   24922.302277    678170.3225 
 305   0.0000   43992.528263   1197097.5533 
 306   0.0000   84401.649724   2296685.6502 

                    ********************************
                    * MULLIKEN POPULATION ANALYSIS *
                    ********************************

-----------------------
MULLIKEN ATOMIC CHARGES
-----------------------
   0 U :    1.800743
   1 Cl:   -0.450285
   2 Cl:   -0.450265
   3 Cl:   -0.447451
   4 Cl:   -0.452742
Sum of atomic charges:   -0.0000000

--------------------------------
MULLIKEN REDUCED ORBITAL CHARGES
--------------------------------
  0 U s       :    12.250868  s :    12.250868
      pz      :    10.045946  p :    30.136033
      px      :    10.045496
      py      :    10.044592
      dz2     :     6.305043  d :    31.442103
      dxz     :     6.259700
      dyz     :     6.291835
      dx2y2   :     6.328315
      dxy     :     6.257210
      f0      :     2.084107  f :    16.370253
      f+1     :     2.434950
      f-1     :     2.858505
      f+2     :     2.084664
      f-2     :     2.058417
      f+3     :     2.710179
      f-3     :     2.139431
  1 Cls       :     5.949954  s :     5.949954
      pz      :     3.793339  p :    11.471333
      px      :     3.843305
      py      :     3.834689
      dz2     :     0.008021  d :     0.027398
      dxz     :     0.006538
      dyz     :     0.007170
      dx2y2   :     0.002759
      dxy     :     0.002910
      f0      :     0.000273  f :     0.001600
      f+1     :     0.000297
      f-1     :     0.000393
      f+2     :     0.000227
      f-2     :     0.000316
      f+3     :     0.000049
      f-3     :     0.000045
  2 Cls       :     5.949947  s :     5.949947
      pz      :     3.793266  p :    11.471333
      px      :     3.843319
      py      :     3.834748
      dz2     :     0.008025  d :     0.027385
      dxz     :     0.006537
      dyz     :     0.007172
      dx2y2   :     0.002750
      dxy     :     0.002901
      f0      :     0.000274  f :     0.001600
      f+1     :     0.000297
      f-1     :     0.000393
      f+2     :     0.000227
      f-2     :     0.000315
      f+3     :     0.000049
      f-3     :     0.000045
  3 Cls       :     5.949754  s :     5.949754
      pz      :     3.854861  p :    11.468564
      px      :     3.845421
      py      :     3.768282
      dz2     :     0.002830  d :     0.027507
      dxz     :     0.001008
      dyz     :     0.007157
      dx2y2   :     0.008250
      dxy     :     0.008261
      f0      :     0.000150  f :     0.001626
      f+1     :     0.000058
      f-1     :     0.000275
      f+2     :     0.000149
      f-2     :     0.000105
      f+3     :     0.000477
      f-3     :     0.000411
  4 Cls       :     5.950050  s :     5.950050
      pz      :     3.856503  p :    11.473912
      px      :     3.761175
      py      :     3.856234
      dz2     :     0.002780  d :     0.027208
      dxz     :     0.008075
      dyz     :     0.000036
      dx2y2   :     0.008282
      dxy     :     0.008035
      f0      :     0.000146  f :     0.001571
      f+1     :     0.000296
      f-1     :     0.000025
      f+2     :     0.000244
      f-2     :     0.000003
      f+3     :     0.000489
      f-3     :     0.000369


                     *******************************
                     * LOEWDIN POPULATION ANALYSIS *
                     *******************************

----------------------
LOEWDIN ATOMIC CHARGES
----------------------
   0 U :   -0.914757
   1 Cl:    0.228808
   2 Cl:    0.228709
   3 Cl:    0.233874
   4 Cl:    0.223366

-------------------------------
LOEWDIN REDUCED ORBITAL CHARGES
-------------------------------
  0 U s       :    12.418907  s :    12.418907
      pz      :    10.210594  p :    30.634865
      px      :    10.215280
      py      :    10.208991
      dz2     :     6.547166  d :    32.567511
      dxz     :     6.457433
      dyz     :     6.518611
      dx2y2   :     6.594308
      dxy     :     6.449993
      f0      :     2.232477  f :    17.293475
      f+1     :     2.554515
      f-1     :     2.991488
      f+2     :     2.232308
      f-2     :     2.157404
      f+3     :     2.841704
      f-3     :     2.283579
  1 Cls       :     5.568380  s :     5.568380
      pz      :     3.714148  p :    11.160349
      px      :     3.724023
      py      :     3.722177
      dz2     :     0.010179  d :     0.038944
      dxz     :     0.009692
      dyz     :     0.013303
      dx2y2   :     0.001986
      dxy     :     0.003785
      f0      :     0.000312  f :     0.003519
      f+1     :     0.000781
      f-1     :     0.001163
      f+2     :     0.000270
      f-2     :     0.000837
      f+3     :     0.000096
      f-3     :     0.000059
  2 Cls       :     5.568427  s :     5.568427
      pz      :     3.714152  p :    11.160439
      px      :     3.724053
      py      :     3.722234
      dz2     :     0.010198  d :     0.038910
      dxz     :     0.009675
      dyz     :     0.013290
      dx2y2   :     0.001978
      dxy     :     0.003769
      f0      :     0.000313  f :     0.003515
      f+1     :     0.000781
      f-1     :     0.001164
      f+2     :     0.000270
      f-2     :     0.000833
      f+3     :     0.000095
      f-3     :     0.000058
  3 Cls       :     5.566732  s :     5.566732
      pz      :     3.725546  p :    11.156713
      px      :     3.724343
      py      :     3.706823
      dz2     :     0.007017  d :     0.039115
      dxz     :     0.000832
      dyz     :     0.004864
      dx2y2   :     0.014669
      dxy     :     0.011733
      f0      :     0.000160  f :     0.003566
      f+1     :     0.000145
      f-1     :     0.000900
      f+2     :     0.000157
      f-2     :     0.000126
      f+3     :     0.001338
      f-3     :     0.000740
  4 Cls       :     5.570272  s :     5.570272
      pz      :     3.727522  p :    11.164359
      px      :     3.708612
      py      :     3.728224
      dz2     :     0.006864  d :     0.038554
      dxz     :     0.005595
      dyz     :     0.000117
      dx2y2   :     0.020382
      dxy     :     0.005596
      f0      :     0.000158  f :     0.003449
      f+1     :     0.000974
      f-1     :     0.000030
      f+2     :     0.000264
      f-2     :     0.000017
      f+3     :     0.001602
      f-3     :     0.000404


                      *****************************
                      * MAYER POPULATION ANALYSIS *
                      *****************************

  NA   - Mulliken gross atomic population
  ZA   - Total nuclear charge
  QA   - Mulliken gross atomic charge
  VA   - Mayer's total valence
  BVA  - Mayer's bonded valence
  FA   - Mayer's free valence

  ATOM       NA         ZA         QA         VA         BVA        FA
  0 U     90.1993    92.0000     1.8007     3.8557     3.8557    -0.0000
  1 Cl    17.4503    17.0000    -0.4503     1.0029     1.0029    -0.0000
  2 Cl    17.4503    17.0000    -0.4503     1.0029     1.0029     0.0000
  3 Cl    17.4475    17.0000    -0.4475     1.0084     1.0084    -0.0000
  4 Cl    17.4527    17.0000    -0.4527     0.9981     0.9981     0.0000

  Mayer bond orders larger than 0.1
B(  0-U ,  1-Cl) :   0.9638 B(  0-U ,  2-Cl) :   0.9638 B(  0-U ,  3-Cl) :   0.9684 
B(  0-U ,  4-Cl) :   0.9597 

-------
TIMINGS
-------

Total SCF time: 0 days 0 hours 2 min 44 sec 

Total time                  ....     164.050 sec
Sum of individual times     ....     163.164 sec  ( 99.5%)

Fock matrix formation       ....     155.522 sec  ( 94.8%)
Diagonalization             ....       4.242 sec  (  2.6%)
Density matrix formation    ....       0.148 sec  (  0.1%)
Population analysis         ....       0.055 sec  (  0.0%)
Initial guess               ....       0.052 sec  (  0.0%)
Orbital Transformation      ....       0.000 sec  (  0.0%)
Orbital Orthonormalization  ....       0.000 sec  (  0.0%)
DIIS solution               ....       3.146 sec  (  1.9%)


           ************************************************************
           *        Program running with 20 parallel MPI-processes    *
           *              working on a common directory               *
           ************************************************************

------------------------------------------------------------------------------
                                ORCA  MP2 
------------------------------------------------------------------------------

Freezing NCore=108 chemical core electrons
MP2 will be done in the AO integral direct mode
The Q1-step will be done using symmetric double matrices
Dimension of the basis                    ...  307
Memory devoted for MP2                    ... 31500 MB   
Memory needed for all in one shot         ...  222 MB
Number of MOs that can be treated together...  283      
MP2 density construction                  ... relaxed
The MP2 gradient is requested => amplitudes will be stored on disk
Total number of MOs              ...   26
Number of MOs treated per batch  ...    2 
Number of batches necessary      ...    1 
OPERATORS   0/  0 PASS   0
-----------------------------------------------
 MP2 CORRELATION ENERGY   :     -1.575194439 Eh
-----------------------------------------------


---------------------
MP2 DENSITY FORMATION
---------------------

Completing the external part of the density      ... done
Storing the unrelaxed density                    ... done

Calculating G(D)                                 ... done
Completing the Lagrangian                        ... done
Solving the Z-vector equations                   ... 

------------------------------------------------------------------------------
                           ORCA CP-SCF CALCULATION
------------------------------------------------------------------------------

Input orbitals are from        ... /home/nikolayandreadi_2125/_scratch/MP2/UCl4.gbw
Input Perturbation             ... /home/nikolayandreadi_2125/_scratch/MP2/UCl4.pin.tmp
Wavefunction output            ... /home/nikolayandreadi_2125/_scratch/MP2/UCl4.pout.tmp
Perturbation mode              ... Real perturbation
Solver                         ... DIIS
   MaxDIIS                     ... 20
   Levelshift                  ...    3.000e-01 Eh
Max. number of iterations      ... 5000
Convergence tolerance          ... 1.000e-08
Integral handling              ... Direct
Number of perturbations        ... 1
Number of operators            ... 1
Orbital ranges used for CP-SCF:
 Operator 0:  Orbitals   0... 79  to  80...306
Variables per vector in CP-SCF ... 18160
Number of vectors sought       ... 1

Solving the CP-SCF equations by a DIIS algorithm

-----------------
CP-SCF ITERATIONS
-----------------
  Iteration   0: MaxR=  0.317708817
  Iteration   1: MaxR=  0.211779257
  Iteration   2: MaxR=  0.092311557
  Iteration   3: MaxR=  0.040474211
  Iteration   4: MaxR=  0.014854377
  Iteration   5: MaxR=  0.004906703
  Iteration   6: MaxR=  0.002126183
  Iteration   7: MaxR=  0.001604479
  Iteration   8: MaxR=  0.001450845
  Iteration   9: MaxR=  0.001337965
  Iteration  10: MaxR=  0.001225167
  Iteration  11: MaxR=  0.001059269
  Iteration  12: MaxR=  0.000762776
  Iteration  13: MaxR=  0.000434831
  Iteration  14: MaxR=  0.000250178
  Iteration  15: MaxR=  0.000210718
  Iteration  16: MaxR=  0.000205693
  Iteration  17: MaxR=  0.000204478
  Iteration  18: MaxR=  0.000204261
  Iteration  19: MaxR=  0.000204217
  Iteration  20: MaxR=  0.000204189
  Iteration  21: MaxR=  0.000204075
  Iteration  22: MaxR=  0.000202722
  Iteration  23: MaxR=  0.000191695
  Iteration  24: MaxR=  0.000179192
  Iteration  25: MaxR=  0.000177064
  Iteration  26: MaxR=  0.000176371
  Iteration  27: MaxR=  0.000174298
  Iteration  28: MaxR=  0.000168888
  Iteration  29: MaxR=  0.000165314
  Iteration  30: MaxR=  0.000164188
  Iteration  31: MaxR=  0.000163850
  Iteration  32: MaxR=  0.000163775
  Iteration  33: MaxR=  0.000163745
  Iteration  34: MaxR=  0.000163724
  Iteration  35: MaxR=  0.000163684
  Iteration  36: MaxR=  0.000163540
  Iteration  37: MaxR=  0.000163067
  Iteration  38: MaxR=  0.000161286
  Iteration  39: MaxR=  0.000151623
  Iteration  40: MaxR=  0.000112237
  Iteration  41: MaxR=  0.000069465
  Iteration  42: MaxR=  0.000032362
  Iteration  43: MaxR=  0.000023448
  Iteration  44: MaxR=  0.000021140
  Iteration  45: MaxR=  0.000019562
  Iteration  46: MaxR=  0.000018280
  Iteration  47: MaxR=  0.000015288
  Iteration  48: MaxR=  0.000012772
  Iteration  49: MaxR=  0.000011899
  Iteration  50: MaxR=  0.000011452
  Iteration  51: MaxR=  0.000011116
  Iteration  52: MaxR=  0.000010579
  Iteration  53: MaxR=  0.000009484
  Iteration  54: MaxR=  0.000008452
  Iteration  55: MaxR=  0.000007537
  Iteration  56: MaxR=  0.000007101
  Iteration  57: MaxR=  0.000006842
  Iteration  58: MaxR=  0.000006436
  Iteration  59: MaxR=  0.000005485
  Iteration  60: MaxR=  0.000003459
  Iteration  61: MaxR=  0.000001695
  Iteration  62: MaxR=  0.000001079
  Iteration  63: MaxR=  0.000000881
  Iteration  64: MaxR=  0.000000804
  Iteration  65: MaxR=  0.000000780
  Iteration  66: MaxR=  0.000000768
  Iteration  67: MaxR=  0.000000761
  Iteration  68: MaxR=  0.000000745
  Iteration  69: MaxR=  0.000000721
  Iteration  70: MaxR=  0.000000706
  Iteration  71: MaxR=  0.000000702
  Iteration  72: MaxR=  0.000000701
  Iteration  73: MaxR=  0.000000697
  Iteration  74: MaxR=  0.000000686
  Iteration  75: MaxR=  0.000000673
  Iteration  76: MaxR=  0.000000666
  Iteration  77: MaxR=  0.000000663
  Iteration  78: MaxR=  0.000000660
  Iteration  79: MaxR=  0.000000655
  Iteration  80: MaxR=  0.000000649
  Iteration  81: MaxR=  0.000000640
  Iteration  82: MaxR=  0.000000632
  Iteration  83: MaxR=  0.000000629
  Iteration  84: MaxR=  0.000000626
  Iteration  85: MaxR=  0.000000624
  Iteration  86: MaxR=  0.000000619
  Iteration  87: MaxR=  0.000000603
  Iteration  88: MaxR=  0.000000571
  Iteration  89: MaxR=  0.000000550
  Iteration  90: MaxR=  0.000000543
  Iteration  91: MaxR=  0.000000540
  Iteration  92: MaxR=  0.000000540
  Iteration  93: MaxR=  0.000000539
  Iteration  94: MaxR=  0.000000537
  Iteration  95: MaxR=  0.000000532
  Iteration  96: MaxR=  0.000000528
  Iteration  97: MaxR=  0.000000526
  Iteration  98: MaxR=  0.000000526
  Iteration  99: MaxR=  0.000000526
  Iteration 100: MaxR=  0.000000525
  Iteration 101: MaxR=  0.000000525
  Iteration 102: MaxR=  0.000000525
  Iteration 103: MaxR=  0.000000525
  Iteration 104: MaxR=  0.000000525
  Iteration 105: MaxR=  0.000000524
  Iteration 106: MaxR=  0.000000524
  Iteration 107: MaxR=  0.000000523
  Iteration 108: MaxR=  0.000000523
  Iteration 109: MaxR=  0.000000522
  Iteration 110: MaxR=  0.000000522
  Iteration 111: MaxR=  0.000000521
  Iteration 112: MaxR=  0.000000520
  Iteration 113: MaxR=  0.000000515
  Iteration 114: MaxR=  0.000000505
  Iteration 115: MaxR=  0.000000487
  Iteration 116: MaxR=  0.000000461
  Iteration 117: MaxR=  0.000000442
  Iteration 118: MaxR=  0.000000436
  Iteration 119: MaxR=  0.000000433
  Iteration 120: MaxR=  0.000000430
  Iteration 121: MaxR=  0.000000422
  Iteration 122: MaxR=  0.000000410
  Iteration 123: MaxR=  0.000000397
  Iteration 124: MaxR=  0.000000391
  Iteration 125: MaxR=  0.000000386
  Iteration 126: MaxR=  0.000000377
  Iteration 127: MaxR=  0.000000360
  Iteration 128: MaxR=  0.000000336
  Iteration 129: MaxR=  0.000000322
  Iteration 130: MaxR=  0.000000317
  Iteration 131: MaxR=  0.000000312
  Iteration 132: MaxR=  0.000000304
  Iteration 133: MaxR=  0.000000295
  Iteration 134: MaxR=  0.000000287
  Iteration 135: MaxR=  0.000000283
  Iteration 136: MaxR=  0.000000281
  Iteration 137: MaxR=  0.000000279
  Iteration 138: MaxR=  0.000000279
  Iteration 139: MaxR=  0.000000279
  Iteration 140: MaxR=  0.000000278
  Iteration 141: MaxR=  0.000000275
  Iteration 142: MaxR=  0.000000271
  Iteration 143: MaxR=  0.000000267
  Iteration 144: MaxR=  0.000000264
  Iteration 145: MaxR=  0.000000262
  Iteration 146: MaxR=  0.000000260
  Iteration 147: MaxR=  0.000000255
  Iteration 148: MaxR=  0.000000246
  Iteration 149: MaxR=  0.000000239
  Iteration 150: MaxR=  0.000000236
  Iteration 151: MaxR=  0.000000234
  Iteration 152: MaxR=  0.000000230
  Iteration 153: MaxR=  0.000000217
  Iteration 154: MaxR=  0.000000182
  Iteration 155: MaxR=  0.000000158
  Iteration 156: MaxR=  0.000000140
  Iteration 157: MaxR=  0.000000131
  Iteration 158: MaxR=  0.000000122
  Iteration 159: MaxR=  0.000000112
  Iteration 160: MaxR=  0.000000100
  Iteration 161: MaxR=  0.000000078
  Iteration 162: MaxR=  0.000000058
  Iteration 163: MaxR=  0.000000049
  Iteration 164: MaxR=  0.000000046
  Iteration 165: MaxR=  0.000000044
  Iteration 166: MaxR=  0.000000043
  Iteration 167: MaxR=  0.000000040
  Iteration 168: MaxR=  0.000000033
  Iteration 169: MaxR=  0.000000028
  Iteration 170: MaxR=  0.000000026
  Iteration 171: MaxR=  0.000000024
  Iteration 172: MaxR=  0.000000024
  Iteration 173: MaxR=  0.000000022
  Iteration 174: MaxR=  0.000000020
  Iteration 175: MaxR=  0.000000015
  Iteration 176: MaxR=  0.000000012
  Iteration 177: MaxR=  0.000000010
  Iteration 178: MaxR=  0.000000010
                              *** THE CP-SCF HAS CONVERGED *** 
                                                 ... done
Finalizing the relaxed density                   ... done
Transforming P to the AO basis                   ... done
Storing the relaxed density                      ... done

------------------------------------
ENERGY WEIGHTED DENSITY FINALIZATION
------------------------------------

Gathering the parts of the W-matrix              ...                                                      done
Forming the Z-density                            ... done
Transforming Z to the AO basis                   ... done
Calculating G(Z)                                 ... done
Finalizing the W-matrix                          ...                                                      done
Transforming W to the AO basis and storing       ... done

                *********************************************
                * UNRELAXED MP2 DENSITY POPULATION ANALYSIS *
                *********************************************

------------------------------------------------------------------------------
                           ORCA POPULATION ANALYSIS
------------------------------------------------------------------------------
Input electron density              ... /home/nikolayandreadi_2125/_scratch/MP2/UCl4.pmp2ur
BaseName (.gbw .S,...)              ... /home/nikolayandreadi_2125/_scratch/MP2/UCl4

                    ********************************
                    * MULLIKEN POPULATION ANALYSIS *
                    ********************************

-----------------------
MULLIKEN ATOMIC CHARGES
-----------------------
   0 U :    1.733074
   1 Cl:   -0.433382
   2 Cl:   -0.433356
   3 Cl:   -0.430362
   4 Cl:   -0.435974
Sum of atomic charges:   -0.0000000

--------------------------------
MULLIKEN REDUCED ORBITAL CHARGES
--------------------------------
  0 U s       :    12.248983  s :    12.248983
      pz      :    10.020365  p :    30.059304
      px      :    10.019849
      py      :    10.019091
      dz2     :     6.315490  d :    31.494193
      dxz     :     6.269949
      dyz     :     6.302398
      dx2y2   :     6.338751
      dxy     :     6.267605
      f0      :     2.102348  f :    16.464446
      f+1     :     2.446700
      f-1     :     2.861422
      f+2     :     2.102984
      f-2     :     2.077951
      f+3     :     2.716257
      f-3     :     2.156785
  1 Cls       :     5.938655  s :     5.938655
      pz      :     3.757375  p :    11.363668
      px      :     3.807486
      py      :     3.798806
      dz2     :     0.027140  d :     0.121162
      dxz     :     0.025424
      dyz     :     0.026104
      dx2y2   :     0.021177
      dxy     :     0.021315
      f0      :     0.001513  f :     0.009897
      f+1     :     0.001514
      f-1     :     0.001627
      f+2     :     0.001417
      f-2     :     0.001507
      f+3     :     0.001161
      f-3     :     0.001157
  2 Cls       :     5.938648  s :     5.938648
      pz      :     3.757301  p :    11.363663
      px      :     3.807499
      py      :     3.798863
      dz2     :     0.027145  d :     0.121149
      dxz     :     0.025424
      dyz     :     0.026108
      dx2y2   :     0.021167
      dxy     :     0.021305
      f0      :     0.001514  f :     0.009896
      f+1     :     0.001514
      f-1     :     0.001627
      f+2     :     0.001417
      f-2     :     0.001506
      f+3     :     0.001161
      f-3     :     0.001156
  3 Cls       :     5.938444  s :     5.938444
      pz      :     3.818966  p :    11.360698
      px      :     3.809501
      py      :     3.732231
      dz2     :     0.021190  d :     0.121291
      dxz     :     0.019162
      dyz     :     0.026213
      dx2y2   :     0.027338
      dxy     :     0.027388
      f0      :     0.001286  f :     0.009928
      f+1     :     0.001139
      f-1     :     0.001478
      f+2     :     0.001330
      f-2     :     0.001280
      f+3     :     0.001739
      f-3     :     0.001676
  4 Cls       :     5.938762  s :     5.938762
      pz      :     3.820742  p :    11.366400
      px      :     3.725206
      py      :     3.820452
      dz2     :     0.021134  d :     0.120951
      dxz     :     0.027250
      dyz     :     0.018063
      dx2y2   :     0.027289
      dxy     :     0.027216
      f0      :     0.001281  f :     0.009861
      f+1     :     0.001513
      f-1     :     0.001087
      f+2     :     0.001436
      f-2     :     0.001164
      f+3     :     0.001744
      f-3     :     0.001634


                     *******************************
                     * LOEWDIN POPULATION ANALYSIS *
                     *******************************

----------------------
LOEWDIN ATOMIC CHARGES
----------------------
   0 U :   -0.946981
   1 Cl:    0.236848
   2 Cl:    0.236756
   3 Cl:    0.242005
   4 Cl:    0.231371

-------------------------------
LOEWDIN REDUCED ORBITAL CHARGES
-------------------------------
  0 U s       :    12.413568  s :    12.413568
      pz      :    10.183557  p :    30.553672
      px      :    10.188113
      py      :    10.182003
      dz2     :     6.554254  d :    32.603674
      dxz     :     6.464770
      dyz     :     6.525996
      dx2y2   :     6.601136
      dxy     :     6.457517
      f0      :     2.247923  f :    17.376067
      f+1     :     2.565353
      f-1     :     2.993690
      f+2     :     2.247853
      f-2     :     2.175852
      f+3     :     2.846958
      f-3     :     2.298437
  1 Cls       :     5.558809  s :     5.558809
      pz      :     3.680680  p :    11.060094
      px      :     3.690650
      py      :     3.688763
      dz2     :     0.029184  d :     0.132240
      dxz     :     0.028482
      dyz     :     0.032214
      dx2y2   :     0.020283
      dxy     :     0.022076
      f0      :     0.001574  f :     0.012009
      f+1     :     0.002038
      f-1     :     0.002457
      f+2     :     0.001478
      f-2     :     0.002072
      f+3     :     0.001214
      f-3     :     0.001175
  2 Cls       :     5.558856  s :     5.558856
      pz      :     3.680681  p :    11.060178
      px      :     3.690678
      py      :     3.688818
      dz2     :     0.029205  d :     0.132206
      dxz     :     0.028465
      dyz     :     0.032202
      dx2y2   :     0.020275
      dxy     :     0.022059
      f0      :     0.001575  f :     0.012004
      f+1     :     0.002038
      f-1     :     0.002459
      f+2     :     0.001477
      f-2     :     0.002068
      f+3     :     0.001213
      f-3     :     0.001175
  3 Cls       :     5.557163  s :     5.557163
      pz      :     3.692133  p :    11.056346
      px      :     3.690918
      py      :     3.673296
      dz2     :     0.025344  d :     0.132423
      dxz     :     0.018867
      dyz     :     0.023721
      dx2y2   :     0.033737
      dxy     :     0.030754
      f0      :     0.001307  f :     0.012062
      f+1     :     0.001236
      f-1     :     0.002148
      f+2     :     0.001349
      f-2     :     0.001308
      f+3     :     0.002668
      f-3     :     0.002047
  4 Cls       :     5.560695  s :     5.560695
      pz      :     3.694186  p :    11.064163
      px      :     3.675112
      py      :     3.694865
      dz2     :     0.025192  d :     0.131841
      dxz     :     0.024540
      dyz     :     0.018052
      dx2y2   :     0.039502
      dxy     :     0.024554
      f0      :     0.001304  f :     0.011929
      f+1     :     0.002243
      f-1     :     0.001097
      f+2     :     0.001473
      f-2     :     0.001179
      f+3     :     0.002941
      f-3     :     0.001694


                      *****************************
                      * MAYER POPULATION ANALYSIS *
                      *****************************

  NA   - Mulliken gross atomic population
  ZA   - Total nuclear charge
  QA   - Mulliken gross atomic charge
  VA   - Mayer's total valence
  BVA  - Mayer's bonded valence
  FA   - Mayer's free valence

  ATOM       NA         ZA         QA         VA         BVA        FA
  0 U     90.2669    92.0000     1.7331     4.8577     3.6136     1.2441
  1 Cl    17.4334    17.0000    -0.4334     1.5359     0.9397     0.5963
  2 Cl    17.4334    17.0000    -0.4334     1.5360     0.9397     0.5963
  3 Cl    17.4304    17.0000    -0.4304     1.5414     0.9447     0.5967
  4 Cl    17.4360    17.0000    -0.4360     1.5312     0.9353     0.5959

  Mayer bond orders larger than 0.1
B(  0-U ,  1-Cl) :   0.9033 B(  0-U ,  2-Cl) :   0.9033 B(  0-U ,  3-Cl) :   0.9075 
B(  0-U ,  4-Cl) :   0.8996 


                *******************************************
                * RELAXED MP2 DENSITY POPULATION ANALYSIS *
                *******************************************

------------------------------------------------------------------------------
                           ORCA POPULATION ANALYSIS
------------------------------------------------------------------------------
Input electron density              ... /home/nikolayandreadi_2125/_scratch/MP2/UCl4.pmp2re
BaseName (.gbw .S,...)              ... /home/nikolayandreadi_2125/_scratch/MP2/UCl4

                    ********************************
                    * MULLIKEN POPULATION ANALYSIS *
                    ********************************

-----------------------
MULLIKEN ATOMIC CHARGES
-----------------------
   0 U :    1.409139
   1 Cl:   -0.352443
   2 Cl:   -0.352231
   3 Cl:   -0.348412
   4 Cl:   -0.356052
Sum of atomic charges:   -0.0000000

--------------------------------
MULLIKEN REDUCED ORBITAL CHARGES
--------------------------------
  0 U s       :    12.355266  s :    12.355266
      pz      :    10.027485  p :    30.081009
      px      :    10.027126
      py      :    10.026398
      dz2     :     6.350262  d :    31.689931
      dxz     :     6.318521
      dyz     :     6.337730
      dx2y2   :     6.370907
      dxy     :     6.312511
      f0      :     2.116974  f :    16.464654
      f+1     :     1.846547
      f-1     :     3.461514
      f+2     :     2.120403
      f-2     :     2.082500
      f+3     :     3.301446
      f-3     :     1.535271
  1 Cls       :     5.942740  s :     5.942740
      pz      :     3.731418  p :    11.278678
      px      :     3.785886
      py      :     3.761374
      dz2     :     0.026984  d :     0.120928
      dxz     :     0.025836
      dyz     :     0.025931
      dx2y2   :     0.020989
      dxy     :     0.021188
      f0      :     0.001539  f :     0.010098
      f+1     :     0.001634
      f-1     :     0.001628
      f+2     :     0.001426
      f-2     :     0.001547
      f+3     :     0.001159
      f-3     :     0.001165
  2 Cls       :     5.942692  s :     5.942692
      pz      :     3.723200  p :    11.278546
      px      :     3.789692
      py      :     3.765654
      dz2     :     0.026811  d :     0.120897
      dxz     :     0.025809
      dyz     :     0.025909
      dx2y2   :     0.020990
      dxy     :     0.021379
      f0      :     0.001533  f :     0.010095
      f+1     :     0.001619
      f-1     :     0.001598
      f+2     :     0.001423
      f-2     :     0.001590
      f+3     :     0.001166
      f-3     :     0.001166
  3 Cls       :     5.942655  s :     5.942655
      pz      :     3.791962  p :    11.274582
      px      :     3.766575
      py      :     3.716046
      dz2     :     0.021714  d :     0.121038
      dxz     :     0.019036
      dyz     :     0.025564
      dx2y2   :     0.028053
      dxy     :     0.026671
      f0      :     0.001299  f :     0.010137
      f+1     :     0.001138
      f-1     :     0.001586
      f+2     :     0.001335
      f-2     :     0.001291
      f+3     :     0.001645
      f-3     :     0.001844
  4 Cls       :     5.942835  s :     5.942835
      pz      :     3.791799  p :    11.282399
      px      :     3.700602
      py      :     3.789997
      dz2     :     0.021105  d :     0.120747
      dxz     :     0.026907
      dyz     :     0.018081
      dx2y2   :     0.028369
      dxy     :     0.026285
      f0      :     0.001294  f :     0.010072
      f+1     :     0.001522
      f-1     :     0.001089
      f+2     :     0.001466
      f-2     :     0.001167
      f+3     :     0.001922
      f-3     :     0.001614


                     *******************************
                     * LOEWDIN POPULATION ANALYSIS *
                     *******************************

----------------------
LOEWDIN ATOMIC CHARGES
----------------------
   0 U :   -1.155496
   1 Cl:    0.288861
   2 Cl:    0.288833
   3 Cl:    0.294897
   4 Cl:    0.282905

-------------------------------
LOEWDIN REDUCED ORBITAL CHARGES
-------------------------------
  0 U s       :    12.481253  s :    12.481253
      pz      :    10.179819  p :    30.542838
      px      :    10.184479
      py      :    10.178540
      dz2     :     6.582399  d :    32.761092
      dxz     :     6.503199
      dyz     :     6.554623
      dx2y2   :     6.628071
      dxy     :     6.492800
      f0      :     2.259462  f :    17.370313
      f+1     :     1.969686
      f-1     :     3.591314
      f+2     :     2.262148
      f-2     :     2.179594
      f+3     :     3.429301
      f-3     :     1.678809
  1 Cls       :     5.568727  s :     5.568727
      pz      :     3.662487  p :    10.996023
      px      :     3.674753
      py      :     3.658784
      dz2     :     0.029796  d :     0.134024
      dxz     :     0.029943
      dyz     :     0.031921
      dx2y2   :     0.020260
      dxy     :     0.022105
      f0      :     0.001630  f :     0.012364
      f+1     :     0.002321
      f-1     :     0.002405
      f+2     :     0.001474
      f-2     :     0.002137
      f+3     :     0.001202
      f-3     :     0.001194
  2 Cls       :     5.568754  s :     5.568754
      pz      :     3.655167  p :    10.996064
      px      :     3.678242
      py      :     3.662655
      dz2     :     0.029192  d :     0.133992
      dxz     :     0.030036
      dyz     :     0.032012
      dx2y2   :     0.020267
      dxy     :     0.022485
      f0      :     0.001600  f :     0.012357
      f+1     :     0.002279
      f-1     :     0.002324
      f+2     :     0.001474
      f-2     :     0.002260
      f+3     :     0.001221
      f-3     :     0.001198
  3 Cls       :     5.567203  s :     5.567203
      pz      :     3.671194  p :    10.991364
      px      :     3.655825
      py      :     3.664345
      dz2     :     0.026206  d :     0.134110
      dxz     :     0.018821
      dyz     :     0.023675
      dx2y2   :     0.036118
      dxy     :     0.029291
      f0      :     0.001331  f :     0.012425
      f+1     :     0.001208
      f-1     :     0.002375
      f+2     :     0.001369
      f-2     :     0.001325
      f+3     :     0.002338
      f-3     :     0.002479
  4 Cls       :     5.570812  s :     5.570812
      pz      :     3.671134  p :    11.000478
      px      :     3.658895
      py      :     3.670449
      dz2     :     0.025209  d :     0.133494
      dxz     :     0.024721
      dyz     :     0.018060
      dx2y2   :     0.041592
      dxy     :     0.023912
      f0      :     0.001327  f :     0.012312
      f+1     :     0.002249
      f-1     :     0.001098
      f+2     :     0.001517
      f-2     :     0.001182
      f+3     :     0.003325
      f-3     :     0.001615


                      *****************************
                      * MAYER POPULATION ANALYSIS *
                      *****************************

  NA   - Mulliken gross atomic population
  ZA   - Total nuclear charge
  QA   - Mulliken gross atomic charge
  VA   - Mayer's total valence
  BVA  - Mayer's bonded valence
  FA   - Mayer's free valence

  ATOM       NA         ZA         QA         VA         BVA        FA
  0 U     90.5909    92.0000     1.4091    -3.7452     4.3932    -8.1384
  1 Cl    17.3524    17.0000    -0.3524     1.6701     1.1316     0.5385
  2 Cl    17.3522    17.0000    -0.3522     1.6703     1.1337     0.5366
  3 Cl    17.3484    17.0000    -0.3484     1.6765     1.1628     0.5136
  4 Cl    17.3561    17.0000    -0.3561     1.6650     1.1501     0.5149

  Mayer bond orders larger than 0.1
B(  0-U ,  1-Cl) :   1.0855 B(  0-U ,  2-Cl) :   1.0876 B(  0-U ,  3-Cl) :   1.1158 
B(  0-U ,  4-Cl) :   1.1042 


----------------------------------
MP2 DERIVATIVE INTEGRAL GENERATION
----------------------------------


Input Wavefunction Amplitudes       ... /home/nikolayandreadi_2125/_scratch/MP2/UCl4.mp2tsaa.tmp.proc19
Input Correlated Electron Density   ... /home/nikolayandreadi_2125/_scratch/MP2/UCl4.pmp2re
Input Energy Weighted Density       ... /home/nikolayandreadi_2125/_scratch/MP2/UCl4.wmp2.tmp
Input SCF Electron Density          ... /home/nikolayandreadi_2125/_scratch/MP2/UCl4.scfp.tmp

One-Electron Terms    ...
                        ... One-Electron Terms done
Prescreening matrices              ... done

Batch handling in the gradient evaluation:
Memory available                      ... 31500.0 MB
Memory per occupied orbital in Q2     ...   18.7 MB
Memory per occupied orbital in Q3     ...    0.1 MB
Total memory requirement per |i>      ...   18.8 MB
Max. Number of orbitals possible      ...   1674
Number of orbitals treated per batch  ...     26
Number of batches to be done          ...      1
Batch   0: i=   54 ...    79

---------------------------------------
MP2 TOTAL ENERGY:   -29794.437004835 Eh
---------------------------------------

-----------------------------------
NORM OF THE MP2 GRADIENT:  0.013298
-----------------------------------

-------------------------   --------------------
FINAL SINGLE POINT ENERGY    -29794.437004835163
-------------------------   --------------------

------------------------------------------------------------------------------
                         ORCA GEOMETRY RELAXATION STEP
------------------------------------------------------------------------------

Reading the OPT-File                    .... done
Getting information on internals        .... done
Copying old internal coords+grads       .... done
Making the new internal coordinates     .... (new redundants).... done
Validating the new internal coordinates .... (new redundants).... done
Calculating the B-matrix                .... done
Calculating the G,G- and P matrices     .... done
Transforming gradient to internals      .... done
Projecting the internal gradient        .... done
Number of atoms                         ....   5
Number of internal coordinates          ....  10
Current Energy                          .... -29794.437004835 Eh
Current gradient norm                   ....     0.013297588 Eh/bohr
Maximum allowed component of the step   ....  0.300
Current trust radius                    ....  0.300
Evaluating the initial hessian          ....  (Almloef) done
Projecting the Hessian                  .... done
Forming the augmented Hessian           .... done
Diagonalizing the augmented Hessian     .... done
Last element of RFO vector              ....  0.989259346
Lowest eigenvalues of augmented Hessian:
 -0.001968949  0.084882148  0.085958724  0.086466489  0.088159741
Length of the computed step             ....  0.147757968
The final length of the internal step   ....  0.147757968
Converting the step to cartesian space:
 Initial RMS(Int)=    0.0467251721
Transforming coordinates:
 Iter   0:  RMS(Cart)=    0.0389828969 RMS(Int)=    0.0466896007
 Iter   1:  RMS(Cart)=    0.0001584753 RMS(Int)=    0.0001018152
 Iter   2:  RMS(Cart)=    0.0000027372 RMS(Int)=    0.0000023027
 Iter   3:  RMS(Cart)=    0.0000000494 RMS(Int)=    0.0000000399
done
Storing new coordinates                 .... done

                                .--------------------.
          ----------------------|Geometry convergence|-------------------------
          Item                value                   Tolerance       Converged
          ---------------------------------------------------------------------
          RMS gradient        0.0043212123            0.0001000000      NO
          MAX gradient        0.0069192483            0.0003000000      NO
          RMS step            0.0467251721            0.0020000000      NO
[...]
      dxz     :     0.025565
      dyz     :     0.026562
      dx2y2   :     0.021206
      dxy     :     0.021321
      f0      :     0.001552  f :     0.010065
      f+1     :     0.001526
      f-1     :     0.001705
      f+2     :     0.001440
      f-2     :     0.001522
      f+3     :     0.001163
      f-3     :     0.001157
  2 Cls       :     5.938075  s :     5.938075
      pz      :     3.757040  p :    11.362120
      px      :     3.807557
      py      :     3.797523
      dz2     :     0.027605  d :     0.122256
      dxz     :     0.025564
      dyz     :     0.026562
      dx2y2   :     0.021206
      dxy     :     0.021319
      f0      :     0.001552  f :     0.010065
      f+1     :     0.001525
      f-1     :     0.001705
      f+2     :     0.001440
      f-2     :     0.001522
      f+3     :     0.001163
      f-3     :     0.001157
  3 Cls       :     5.938073  s :     5.938073
      pz      :     3.817773  p :    11.362269
      px      :     3.807674
      py      :     3.736821
      dz2     :     0.021239  d :     0.122229
      dxz     :     0.019202
      dyz     :     0.026545
      dx2y2   :     0.027563
      dxy     :     0.027680
      f0      :     0.001297  f :     0.010061
      f+1     :     0.001145
      f-1     :     0.001502
      f+2     :     0.001344
      f-2     :     0.001290
      f+3     :     0.001776
      f-3     :     0.001707
  4 Cls       :     5.938078  s :     5.938078
      pz      :     3.817669  p :    11.362064
      px      :     3.726747
      py      :     3.817648
      dz2     :     0.021243  d :     0.122271
      dxz     :     0.027687
      dyz     :     0.018074
      dx2y2   :     0.027577
      dxy     :     0.027689
      f0      :     0.001298  f :     0.010067
      f+1     :     0.001558
      f-1     :     0.001091
      f+2     :     0.001463
      f-2     :     0.001171
      f+3     :     0.001815
      f-3     :     0.001671


                     *******************************
                     * LOEWDIN POPULATION ANALYSIS *
                     *******************************

----------------------
LOEWDIN ATOMIC CHARGES
----------------------
   0 U :   -1.012983
   1 Cl:    0.253325
   2 Cl:    0.253292
   3 Cl:    0.252887
   4 Cl:    0.253479

-------------------------------
LOEWDIN REDUCED ORBITAL CHARGES
-------------------------------
  0 U s       :    12.413929  s :    12.413929
      pz      :    10.182026  p :    30.546103
      px      :    10.182035
      py      :    10.182041
      dz2     :     6.568815  d :    32.647975
      dxz     :     6.460087
      dyz     :     6.546880
      dx2y2   :     6.612209
      dxy     :     6.459985
      f0      :     2.258673  f :    17.404976
      f+1     :     2.582775
      f-1     :     2.985869
      f+2     :     2.254087
      f-2     :     2.175790
      f+3     :     2.849311
      f-3     :     2.298472
  1 Cls       :     5.550531  s :     5.550531
      pz      :     3.678293  p :    11.048360
      px      :     3.685764
      py      :     3.684303
      dz2     :     0.030389  d :     0.135286
      dxz     :     0.028394
      dyz     :     0.033973
      dx2y2   :     0.020453
      dxy     :     0.022077
      f0      :     0.001645  f :     0.012498
      f+1     :     0.002063
      f-1     :     0.002734
      f+2     :     0.001551
      f-2     :     0.002107
      f+3     :     0.001226
      f-3     :     0.001173
  2 Cls       :     5.550544  s :     5.550544
      pz      :     3.678318  p :    11.048387
      px      :     3.685755
      py      :     3.684314
      dz2     :     0.030391  d :     0.135280
      dxz     :     0.028389
      dyz     :     0.033973
      dx2y2   :     0.020452
      dxy     :     0.022075
      f0      :     0.001645  f :     0.012497
      f+1     :     0.002062
      f-1     :     0.002735
      f+2     :     0.001551
      f-2     :     0.002106
      f+3     :     0.001226
      f-3     :     0.001173
  3 Cls       :     5.550698  s :     5.550698
      pz      :     3.687423  p :    11.048710
      px      :     3.685944
      py      :     3.675343
      dz2     :     0.025840  d :     0.135217
      dxz     :     0.018921
      dyz     :     0.024095
      dx2y2   :     0.034815
      dxy     :     0.031546
      f0      :     0.001329  f :     0.012487
      f+1     :     0.001252
      f-1     :     0.002250
      f+2     :     0.001373
      f-2     :     0.001326
      f+3     :     0.002816
      f-3     :     0.002141
  4 Cls       :     5.550469  s :     5.550469
      pz      :     3.687206  p :    11.048233
      px      :     3.673847
      py      :     3.687181
      dz2     :     0.025860  d :     0.135316
      dxz     :     0.024971
      dyz     :     0.018059
      dx2y2   :     0.041453
      dxy     :     0.024972
      f0      :     0.001330  f :     0.012503
      f+1     :     0.002405
      f-1     :     0.001102
      f+2     :     0.001515
      f-2     :     0.001186
      f+3     :     0.003217
      f-3     :     0.001747


                      *****************************
                      * MAYER POPULATION ANALYSIS *
                      *****************************

  NA   - Mulliken gross atomic population
  ZA   - Total nuclear charge
  QA   - Mulliken gross atomic charge
  VA   - Mayer's total valence
  BVA  - Mayer's bonded valence
  FA   - Mayer's free valence

  ATOM       NA         ZA         QA         VA         BVA        FA
  0 U     90.2699    92.0000     1.7301     4.8688     3.6187     1.2501
  1 Cl    17.4325    17.0000    -0.4325     1.5402     0.9438     0.5964
  2 Cl    17.4325    17.0000    -0.4325     1.5402     0.9438     0.5964
  3 Cl    17.4326    17.0000    -0.4326     1.5400     0.9436     0.5964
  4 Cl    17.4325    17.0000    -0.4325     1.5403     0.9439     0.5964

  Mayer bond orders larger than 0.1
B(  0-U ,  1-Cl) :   0.9047 B(  0-U ,  2-Cl) :   0.9047 B(  0-U ,  3-Cl) :   0.9045 
B(  0-U ,  4-Cl) :   0.9048 


                *******************************************
                * RELAXED MP2 DENSITY POPULATION ANALYSIS *
                *******************************************

------------------------------------------------------------------------------
                           ORCA POPULATION ANALYSIS
------------------------------------------------------------------------------
Input electron density              ... /home/nikolayandreadi_2125/_scratch/MP2/UCl4.pmp2re
BaseName (.gbw .S,...)              ... /home/nikolayandreadi_2125/_scratch/MP2/UCl4

                    ********************************
                    * MULLIKEN POPULATION ANALYSIS *
                    ********************************

-----------------------
MULLIKEN ATOMIC CHARGES
-----------------------
   0 U :    1.402317
   1 Cl:   -0.350550
   2 Cl:   -0.350559
   3 Cl:   -0.350685
   4 Cl:   -0.350523
Sum of atomic charges:   -0.0000000

--------------------------------
MULLIKEN REDUCED ORBITAL CHARGES
--------------------------------
  0 U s       :    12.356927  s :    12.356927
      pz      :    10.021689  p :    30.065128
      px      :    10.021663
      py      :    10.021775
      dz2     :     6.356887  d :    31.710283
      dxz     :     6.315875
      dyz     :     6.348502
      dx2y2   :     6.373373
      dxy     :     6.315647
      f0      :     2.121659  f :    16.465345
      f+1     :     2.430451
      f-1     :     2.845078
      f+2     :     2.119762
      f-2     :     2.085787
      f+3     :     2.722663
      f-3     :     2.139945
  1 Cls       :     5.942136  s :     5.942136
      pz      :     3.728217  p :    11.275832
      px      :     3.779093
      py      :     3.768522
      dz2     :     0.027517  d :     0.122289
      dxz     :     0.025548
      dyz     :     0.026882
      dx2y2   :     0.021065
      dxy     :     0.021278
      f0      :     0.001581  f :     0.010293
      f+1     :     0.001571
      f-1     :     0.001774
      f+2     :     0.001464
      f-2     :     0.001572
      f+3     :     0.001169
      f-3     :     0.001162
  2 Cls       :     5.942136  s :     5.942136
      pz      :     3.727895  p :    11.275844
      px      :     3.779421
      py      :     3.768528
      dz2     :     0.027509  d :     0.122287
      dxz     :     0.025557
      dyz     :     0.026871
      dx2y2   :     0.021066
      dxy     :     0.021284
      f0      :     0.001581  f :     0.010293
      f+1     :     0.001572
      f-1     :     0.001771
      f+2     :     0.001463
      f-2     :     0.001574
      f+3     :     0.001169
      f-3     :     0.001162
  3 Cls       :     5.942136  s :     5.942136
      pz      :     3.789285  p :    11.276003
      px      :     3.778440
      py      :     3.708279
      dz2     :     0.021550  d :     0.122257
      dxz     :     0.019152
      dyz     :     0.026048
      dx2y2   :     0.027876
      dxy     :     0.027632
      f0      :     0.001311  f :     0.010289
      f+1     :     0.001155
      f-1     :     0.001553
      f+2     :     0.001358
      f-2     :     0.001301
      f+3     :     0.001844
      f-3     :     0.001765
  4 Cls       :     5.942135  s :     5.942135
      pz      :     3.789072  p :    11.275790
      px      :     3.697575
      py      :     3.789143
      dz2     :     0.021531  d :     0.122303
      dxz     :     0.027127
      dyz     :     0.018105
      dx2y2   :     0.028430
      dxy     :     0.027110
      f0      :     0.001312  f :     0.010295
      f+1     :     0.001612
      f-1     :     0.001094
      f+2     :     0.001487
      f-2     :     0.001174
      f+3     :     0.001910
      f-3     :     0.001706


                     *******************************
                     * LOEWDIN POPULATION ANALYSIS *
                     *******************************

----------------------
LOEWDIN ATOMIC CHARGES
----------------------
   0 U :   -1.221873
   1 Cl:    0.305548
   2 Cl:    0.305516
   3 Cl:    0.305117
   4 Cl:    0.305691

-------------------------------
LOEWDIN REDUCED ORBITAL CHARGES
-------------------------------
  0 U s       :    12.483950  s :    12.483950
      pz      :    10.178343  p :    30.535050
      px      :    10.178347
      py      :    10.178361
      dz2     :     6.597217  d :    32.804986
      dxz     :     6.496882
      dyz     :     6.576884
      dx2y2   :     6.637360
      dxy     :     6.496643
      f0      :     2.271660  f :    17.397887
      f+1     :     2.549872
      f-1     :     2.987750
      f+2     :     2.266790
      f-2     :     2.182022
      f+3     :     2.856971
      f-3     :     2.282822
  1 Cls       :     5.560568  s :     5.560568
      pz      :     3.657627  p :    10.983641
      px      :     3.663810
      py      :     3.662204
      dz2     :     0.030933  d :     0.137351
      dxz     :     0.028873
      dyz     :     0.034806
      dx2y2   :     0.020506
      dxy     :     0.022233
      f0      :     0.001700  f :     0.012893
      f+1     :     0.002142
      f-1     :     0.002851
      f+2     :     0.001593
      f-2     :     0.002190
      f+3     :     0.001235
      f-3     :     0.001182
  2 Cls       :     5.560581  s :     5.560581
      pz      :     3.657347  p :    10.983667
      px      :     3.664107
      py      :     3.662212
      dz2     :     0.030905  d :     0.137345
      dxz     :     0.028903
      dyz     :     0.034783
      dx2y2   :     0.020506
      dxy     :     0.022248
      f0      :     0.001698  f :     0.012892
      f+1     :     0.002146
      f-1     :     0.002842
      f+2     :     0.001591
      f-2     :     0.002197
      f+3     :     0.001235
      f-3     :     0.001182
  3 Cls       :     5.560735  s :     5.560735
      pz      :     3.665147  p :    10.983990
      px      :     3.663312
      py      :     3.655530
      dz2     :     0.026340  d :     0.137276
      dxz     :     0.018931
      dyz     :     0.024167
      dx2y2   :     0.035782
      dxy     :     0.032057
      f0      :     0.001355  f :     0.012881
      f+1     :     0.001268
      f-1     :     0.002339
      f+2     :     0.001401
      f-2     :     0.001344
      f+3     :     0.002924
      f-3     :     0.002250
  4 Cls       :     5.560506  s :     5.560506
      pz      :     3.664826  p :    10.983521
      px      :     3.653803
      py      :     3.664892
      dz2     :     0.026322  d :     0.137384
      dxz     :     0.025052
      dyz     :     0.018072
      dx2y2   :     0.042897
      dxy     :     0.025041
      f0      :     0.001356  f :     0.012898
      f+1     :     0.002496
      f-1     :     0.001107
      f+2     :     0.001559
      f-2     :     0.001189
      f+3     :     0.003380
      f-3     :     0.001812


                      *****************************
                      * MAYER POPULATION ANALYSIS *
                      *****************************

  NA   - Mulliken gross atomic population
  ZA   - Total nuclear charge
  QA   - Mulliken gross atomic charge
  VA   - Mayer's total valence
  BVA  - Mayer's bonded valence
  FA   - Mayer's free valence

  ATOM       NA         ZA         QA         VA         BVA        FA
  0 U     90.5977    92.0000     1.4023     5.3044     4.1964     1.1080
  1 Cl    17.3505    17.0000    -0.3505     1.6786     1.0972     0.5814
  2 Cl    17.3506    17.0000    -0.3506     1.6786     1.0972     0.5814
  3 Cl    17.3507    17.0000    -0.3507     1.6783     1.0970     0.5814
  4 Cl    17.3505    17.0000    -0.3505     1.6786     1.0973     0.5814

  Mayer bond orders larger than 0.1
B(  0-U ,  1-Cl) :   1.0491 B(  0-U ,  2-Cl) :   1.0491 B(  0-U ,  3-Cl) :   1.0489 
B(  0-U ,  4-Cl) :   1.0492 


----------------------------------
MP2 DERIVATIVE INTEGRAL GENERATION
----------------------------------


Input Wavefunction Amplitudes       ... /home/nikolayandreadi_2125/_scratch/MP2/UCl4.mp2tsaa.tmp.proc19
Input Correlated Electron Density   ... /home/nikolayandreadi_2125/_scratch/MP2/UCl4.pmp2re
Input Energy Weighted Density       ... /home/nikolayandreadi_2125/_scratch/MP2/UCl4.wmp2.tmp
Input SCF Electron Density          ... /home/nikolayandreadi_2125/_scratch/MP2/UCl4.scfp.tmp

One-Electron Terms    ...
                        ... One-Electron Terms done
Prescreening matrices              ... done

Batch handling in the gradient evaluation:
Memory available                      ... 31500.0 MB
Memory per occupied orbital in Q2     ...   18.7 MB
Memory per occupied orbital in Q3     ...    0.1 MB
Total memory requirement per |i>      ...   18.8 MB
Max. Number of orbitals possible      ...   1674
Number of orbitals treated per batch  ...     26
Number of batches to be done          ...      1
Batch   0: i=   54 ...    79

---------------------------------------
MP2 TOTAL ENERGY:   -29794.437700568 Eh
---------------------------------------

-----------------------------------
NORM OF THE MP2 GRADIENT:  0.000226
-----------------------------------

-------------------------   --------------------
FINAL SINGLE POINT ENERGY    -29794.437700568076
-------------------------   --------------------

                                *** OPTIMIZATION RUN DONE ***

                            ***************************************
                            *     ORCA property calculations      *
                            ***************************************

                                    ---------------------
                                    Active property flags
                                    ---------------------
   (+) Dipole Moment


------------------------------------------------------------------------------
                       ORCA ELECTRIC PROPERTIES CALCULATION
------------------------------------------------------------------------------

Dipole Moment Calculation                       ... on
Quadrupole Moment Calculation                   ... off
Polarizability Calculation                      ... off
GBWName                                         ... /home/nikolayandreadi_2125/_scratch/MP2/UCl4.gbw
Electron density file                           ... /home/nikolayandreadi_2125/_scratch/MP2/UCl4.scfp.tmp
The origin for moment calculation is the CENTER OF MASS  = ( 0.000340, -0.000076  0.000014)

-------------
DIPOLE MOMENT
-------------
                                X             Y             Z
Electronic contribution:      0.00844      -0.00266       0.00037
Nuclear contribution   :     -0.00659       0.00147      -0.00026
                        -----------------------------------------
Total Dipole Moment    :      0.00184      -0.00119       0.00011
                        -----------------------------------------
Magnitude (a.u.)       :      0.00220
Magnitude (Debye)      :      0.00558


                         *** MP2 UNRELAXED DENSITY ***

------------------------------------------------------------------------------
                       ORCA ELECTRIC PROPERTIES CALCULATION
------------------------------------------------------------------------------

Dipole Moment Calculation                       ... on
Quadrupole Moment Calculation                   ... off
Polarizability Calculation                      ... off
GBWName                                         ... /home/nikolayandreadi_2125/_scratch/MP2/UCl4.gbw
Electron density file                           ... /home/nikolayandreadi_2125/_scratch/MP2/UCl4.pmp2ur
The origin for moment calculation is the CENTER OF MASS  = ( 0.000340, -0.000076  0.000014)

-------------
DIPOLE MOMENT
-------------
                                X             Y             Z
Electronic contribution:      0.00839      -0.00266       0.00037
Nuclear contribution   :     -0.00659       0.00147      -0.00026
                        -----------------------------------------
Total Dipole Moment    :      0.00179      -0.00118       0.00011
                        -----------------------------------------
Magnitude (a.u.)       :      0.00215
Magnitude (Debye)      :      0.00547


                           *** MP2 RELAXED DENSITY ***

------------------------------------------------------------------------------
                       ORCA ELECTRIC PROPERTIES CALCULATION
------------------------------------------------------------------------------

Dipole Moment Calculation                       ... on
Quadrupole Moment Calculation                   ... off
Polarizability Calculation                      ... off
GBWName                                         ... /home/nikolayandreadi_2125/_scratch/MP2/UCl4.gbw
Electron density file                           ... /home/nikolayandreadi_2125/_scratch/MP2/UCl4.pmp2re
The origin for moment calculation is the CENTER OF MASS  = ( 0.000340, -0.000076  0.000014)

-------------
DIPOLE MOMENT
-------------
                                X             Y             Z
Electronic contribution:      0.00810      -0.00255       0.00034
Nuclear contribution   :     -0.00659       0.00147      -0.00026
                        -----------------------------------------
Total Dipole Moment    :      0.00151      -0.00108       0.00008
                        -----------------------------------------
Magnitude (a.u.)       :      0.00186
Magnitude (Debye)      :      0.00472


Timings for individual modules:

Sum of individual times         ...     4728.126 sec (=  78.802 min)
GTO integral calculation        ...       13.154 sec (=   0.219 min)   0.3 %
Relativistic integrals          ...        3.935 sec (=   0.066 min)   0.1 %
SCF iterations                  ...      560.842 sec (=   9.347 min)  11.9 %
MP2 module                      ...     4149.936 sec (=  69.166 min)  87.8 %
Geometry relaxation             ...        0.260 sec (=   0.004 min)   0.0 %
                             ****ORCA TERMINATED NORMALLY****
TOTAL RUN TIME: 0 days 1 hours 18 minutes 51 seconds 640 msec
