
                                 *****************
                                 * O   R   C   A *
                                 *****************

           --- An Ab Initio, DFT and Semiempirical electronic structure package ---

                  #######################################################
                  #                        -***-                        #
                  #  Department of molecular theory and spectroscopy    #
                  #              Directorship: Frank Neese              #
                  # Max Planck Institute for Chemical Energy Conversion #
                  #                  D-45470 Muelheim/Ruhr              #
                  #                       Germany                       #
                  #                                                     #
                  #                  All rights reserved                #
                  #                        -***-                        #
                  #######################################################


                         Program Version 4.0.1.2 - RELEASE -


 With contributions from (in alphabetic order):
   Daniel Aravena         : Magnetic Properties
   Michael Atanasov       : Ab Initio Ligand Field Theory
   Ute Becker             : Parallelization
   Martin Brehm           : Molecular dynamics
   Dmytro Bykov           : SCF Hessian
   Vijay G. Chilkuri      : MRCI spin determinant printing
   Dipayan Datta          : RHF DLPNO-CCSD density
   Achintya Kumar Dutta   : EOM-CC, STEOM-CC
   Dmitry Ganyushin       : Spin-Orbit,Spin-Spin,Magnetic field MRCI
   Yang Guo               : DLPNO-NEVPT2, CIM, IAO-localization
   Andreas Hansen         : Spin unrestricted coupled pair/coupled cluster methods
   Lee Huntington         : MR-EOM, pCC
   Robert Izsak           : Overlap fitted RIJCOSX, COSX-SCS-MP3, EOM
   Christian Kollmar      : KDIIS, OOCD, Brueckner-CCSD(T), CCSD density
   Simone Kossmann        : Meta GGA functionals, TD-DFT gradient, OOMP2, MP2 Hessian
   Martin Krupicka        : AUTO-CI
   Dagmar Lenk            : GEPOL surface
   Dimitrios Liakos       : Extrapolation schemes; parallel MDCI
   Dimitrios Manganas     : ROCIS; embedding schemes
   Dimitrios Pantazis     : SARC Basis sets
   Taras Petrenko         : DFT Hessian,TD-DFT gradient, ASA, ECA, R-Raman, ABS, FL, XAS/XES, NRVS
   Peter Pinski           : DLPNO-MP2
   Christoph Reimann      : Effective Core Potentials
   Marius Retegan         : Local ZFS, SOC
   Christoph Riplinger    : Optimizer, TS searches, QM/MM, DLPNO-CCSD(T), (RO)-DLPNO pert. Triples
   Tobias Risthaus        : Range-separated hybrids, TD-DFT gradient, RPA, STAB
   Michael Roemelt        : Restricted open shell CIS
   Masaaki Saitow         : Open-shell DLPNO
   Barbara Sandhoefer     : DKH picture change effects
   Kantharuban Sivalingam : CASSCF convergence, NEVPT2, FIC-MRCI
   Georgi Stoychev        : AutoAux
   Boris Wezisla          : Elementary symmetry handling
   Frank Wennmohs         : Technical directorship


 We gratefully acknowledge several colleagues who have allowed us to
 interface, adapt or use parts of their codes:
   Stefan Grimme, W. Hujo, H. Kruse,             : VdW corrections, initial TS optimization,
                  C. Bannwarth                     DFT functionals, gCP, sTDA/sTD-DF
   Ed Valeev                                     : LibInt (2-el integral package), F12 methods
   Garnet Chan, S. Sharma, J. Yang, R. Olivares  : DMRG
   Ulf Ekstrom                                   : XCFun DFT Library
   Mihaly Kallay                                 : mrcc  (arbitrary order and MRCC methods)
   Andreas Klamt, Michael Diedenhofen            : otool_cosmo (COSMO solvation model)
   Jiri Pittner, Ondrej Demel                    : Mk-CCSD
   Frank Weinhold                                : gennbo (NPA and NBO analysis)
   Christopher J. Cramer and Donald G. Truhlar   : smd solvation model


 Your calculation uses the libint2 library for the computation of 2-el integrals
 For citations please refer to: http://libint.valeyev.net

 This ORCA versions uses:
   CBLAS   interface :  Fast vector & matrix operations
   LAPACKE interface :  Fast linear algebra routines
   SCALAPACK package :  Parallel linear algebra routines


Your calculation utilizes the basis: DKH-def2-TZVP
   Exponents from def2-TZVP [F. Weigend and R. Ahlrichs, Phys. Chem. Chem. Phys. 7, 3297 (2005)],
   recontracted for DKH2 by D. A. Pantazis.

Your calculation utilizes the auxiliary basis: SARC/J 
   decontracted def2/J up to Kr:
   F. Weigend, Phys. Chem. Chem. Phys. 8, 1057 (2006)
   and SARC auxiliary basis sets beyond Kr:
   D. A. Pantazis and F. Neese, J. Chem. Theory Comput. 5, 2229 (2009).
   D. A. Pantazis, X. Y. Chen, C. R. Landis and F. Neese, J. Chem. Theory Comput. 4, 908 (2008).
   D. A. Pantazis and F. Neese, Theor. Chem. Acc. 131, 1292 (2012).
   D. A. Pantazis and F. Neese, J. Chem. Theory Comput. 7, 677 (2011).

================================================================================
                                        WARNINGS
                       Please study these warnings very carefully!
================================================================================

Warning: TCutStore was < 0. Adjusted to Thresh (uncritical)

WARNING: your system is open-shell and RHF/RKS was chosen
  ===> : WILL SWITCH to UHF/UKS


WARNING: In scalar relativistic gradient/hessian runs we need the one-center approximation
  ===> : %rel OneCenter is turned on

WARNING: The frozen-core approximation for MP2-gradient calculations is turned on by default.

WARNING: Geometry Optimization
  ===> : Switching off AutoStart
         For restart on a previous wavefunction, please use MOREAD

WARNING: Post HF methods need fully converged wavefunctions
  ===> : Setting SCFConvForced true
         You can overwrite this default with %scf ConvForced false 


INFO   : the flag for use of LIBINT has been found!

================================================================================
                                       INPUT FILE
================================================================================
NAME = /home/nikolayandreadi_2125/_scratch/MP2/UCl5.inp
|  1> !Opt MP2 DKH-def2-TZVP DKH SARC/J SlowConv
|  2> 
|  3> %pal
|  4> nproc 20
|  5> end
|  6> 
|  7> %maxcore 31500
|  8> 
|  9> %basis
| 10> newgto U "SARC-DKH-TZVP" end
| 11> end
| 12> 
| 13> %scf
| 14> MaxIter 5000
| 15> Guess HCore
| 16> end
| 17> 
| 18> %method
| 19> Z_MaxIter 5000
| 20> end
| 21> 
| 22> * xyz 0 2
| 23>   U      0.037500   -0.000670    0.000162
| 24>   Cl     0.070817   -0.000090    2.457963
| 25>   Cl     0.070865   -0.000087   -2.457690
| 26>   Cl    -1.351866   -2.036653   -0.000130
| 27>   Cl     2.523119    0.001144   -0.000173
| 28>   Cl    -1.350435    2.036355   -0.000133
| 29> **                         ****END OF INPUT****
================================================================================

                       *****************************
                       * Geometry Optimization Run *
                       *****************************

Geometry optimization settings:
Update method            Update   .... BFGS
Choice of coordinates    CoordSys .... Redundant Internals
Initial Hessian          InHess   .... Almoef's Model

Convergence Tolerances:
Energy Change            TolE     ....  5.0000e-06 Eh
Max. Gradient            TolMAXG  ....  3.0000e-04 Eh/bohr
RMS Gradient             TolRMSG  ....  1.0000e-04 Eh/bohr
Max. Displacement        TolMAXD  ....  4.0000e-03 bohr
RMS Displacement         TolRMSD  ....  2.0000e-03 bohr

------------------------------------------------------------------------------
                        ORCA OPTIMIZATION COORDINATE SETUP
------------------------------------------------------------------------------

The optimization will be done in new redundant internal coordinates
Making redundant internal coordinates   ...  (new redundants) done
Evaluating the initial hessian          ...  (Almloef) done
Evaluating the coordinates              ...  done
Calculating the B-matrix                .... done
Calculating the G-matrix                .... done
Diagonalizing the G-matrix              .... done
The first mode is                       ....    2
The number of degrees of freedom        ....   12

    -----------------------------------------------------------------
                    Redundant Internal Coordinates


    -----------------------------------------------------------------
         Definition                    Initial Value    Approx d2E/dq
    -----------------------------------------------------------------
      1. B(Cl  1,U   0)                  2.4580         0.093166   
      2. B(Cl  2,U   0)                  2.4581         0.093149   
      3. B(Cl  3,U   0)                  2.4649         0.090855   
      4. B(Cl  4,U   0)                  2.4856         0.084185   
      5. B(Cl  5,U   0)                  2.4649         0.090837   
      6. A(Cl  2,U   0,Cl  3)           90.4428         0.277022   
      7. A(Cl  1,U   0,Cl  4)           89.2311         0.273813   
      8. A(Cl  2,U   0,Cl  4)           89.2145         0.273805   
      9. A(Cl  3,U   0,Cl  4)          124.3517         0.272765   
     10. A(Cl  1,U   0,Cl  5)           90.4330         0.277021   
     11. A(Cl  2,U   0,Cl  5)           90.4198         0.277013   
     12. A(Cl  3,U   0,Cl  5)          111.4214         0.275955   
     13. A(Cl  4,U   0,Cl  5)          124.2269         0.272757   
     14. A(Cl  1,U   0,Cl  3)           90.4557         0.277030   
    -----------------------------------------------------------------

Number of atoms                         .... 6
Number of degrees of freedom            .... 14

         *************************************************************
         *                GEOMETRY OPTIMIZATION CYCLE   1            *
         *************************************************************
---------------------------------
CARTESIAN COORDINATES (ANGSTROEM)
---------------------------------
  U      0.037500   -0.000670    0.000162
  Cl     0.070817   -0.000090    2.457963
  Cl     0.070865   -0.000087   -2.457690
  Cl    -1.351866   -2.036653   -0.000130
  Cl     2.523119    0.001144   -0.000173
  Cl    -1.350435    2.036355   -0.000133

----------------------------
CARTESIAN COORDINATES (A.U.)
----------------------------
  NO LB      ZA    FRAG     MASS         X           Y           Z
   0 U    92.0000    0   238.029    0.070865   -0.001266    0.000306
   1 Cl   17.0000    0    35.453    0.133825   -0.000170    4.644877
   2 Cl   17.0000    0    35.453    0.133915   -0.000164   -4.644361
   3 Cl   17.0000    0    35.453   -2.554657   -3.848716   -0.000246
   4 Cl   17.0000    0    35.453    4.768004    0.002162   -0.000327
   5 Cl   17.0000    0    35.453   -2.551952    3.848153   -0.000251

--------------------------------
INTERNAL COORDINATES (ANGSTROEM)
--------------------------------
 U      0   0   0     0.000000000000     0.00000000     0.00000000
 Cl     1   0   0     2.458026874241     0.00000000     0.00000000
 Cl     1   2   0     2.458078521329   178.44539728     0.00000000
 Cl     1   2   3     2.464866070096    90.45570800   125.30647800
 Cl     1   2   4     2.485619684502    89.23108055   235.65098759
 Cl     1   2   5     2.464920790183    90.43297643   235.77550610

---------------------------
INTERNAL COORDINATES (A.U.)
---------------------------
 U      0   0   0     0.000000000000     0.00000000     0.00000000
 Cl     1   0   0     4.644997622134     0.00000000     0.00000000
 Cl     1   2   0     4.645095220986   178.44539728     0.00000000
 Cl     1   2   3     4.657921829276    90.45570800   125.30647800
 Cl     1   2   4     4.697140476792    89.23108055   235.65098759
 Cl     1   2   5     4.658025235254    90.43297643   235.77550610

---------------------
BASIS SET INFORMATION
---------------------
There are 2 groups of distinct atoms

 Group   1 Type U   : 29s20p16d12f contracted to 21s13p10d7f pattern {911111111111111111111/8111111111111/7111111111/6111111}
 Group   2 Type Cl  : 14s9p3d1f contracted to 8s4p2d1f pattern {71111111/6111/21/1}

Atom   0U    basis set group =>   1
Atom   1Cl   basis set group =>   2
Atom   2Cl   basis set group =>   2
Atom   3Cl   basis set group =>   2
Atom   4Cl   basis set group =>   2
Atom   5Cl   basis set group =>   2

INFORMATION: There is an auxiliary basis set but the global RI flag is NOT set

-------------------------------
AUXILIARY BASIS SET INFORMATION
-------------------------------
There are 2 groups of distinct atoms

 Group   1 Type U   : 33s10p8d6f4g2h1i contracted to 33s10p8d6f4g2h1i pattern {111111111111111111111111111111111/1111111111/11111111/111111/1111/11/1}
 Group   2 Type Cl  : 14s5p5d2f1g contracted to 14s5p5d2f1g pattern {11111111111111/11111/11111/11/1}

Atom   0U    basis set group =>   1
Atom   1Cl   basis set group =>   2
Atom   2Cl   basis set group =>   2
Atom   3Cl   basis set group =>   2
Atom   4Cl   basis set group =>   2
Atom   5Cl   basis set group =>   2


           ************************************************************
           *        Program running with 20 parallel MPI-processes    *
           *              working on a common directory               *
           ************************************************************
------------------------------------------------------------------------------
                           ORCA GTO INTEGRAL CALCULATION
------------------------------------------------------------------------------

                         BASIS SET STATISTICS AND STARTUP INFO

 # of primitive gaussian shells          ...  212
 # of primitive gaussian functions       ...  568
 # of contracted shells                  ...  126
 # of contracted basis functions         ...  344
 Highest angular momentum                ...    3
 Maximum contraction depth               ...    9
 Integral package used                   ... LIBINT
 Integral threshhold            Thresh   ...  2.500e-11
 Primitive cut-off              TCut     ...  2.500e-12


------------------------------ INTEGRAL EVALUATION ----------------------------


 * One electron integrals 
 Pre-screening matrix                    ... done
 Shell pair data                         ... done (   0.002 sec)

------------------------------------------------------------------------------
                          ORCA RELATIVISTIC HAMILTONIAN
------------------------------------------------------------------------------

Relativistic Method            ... DKH
Order of DKH treatment         ...   2
Treatment of potential         ... V(e,N)
Eps parameter for DKH          ...   0.00000000010000
Nucleus model                  ... Point Nucleus
Speed of light used            ... 137.03598950000000


            ************************************************
            *        DOUGLAS-KROLL-HESS HAMILTONIAN        *
            *   Programmed by FN according to literature   *
            *        procedures. Special thanks to         *
            *       B.A. Hess, M. Reiher and A. Wolf       *
            *     University Erlangen-Nuernberg/Bonn       *
            ************************************************

Uncontracting the basis (first version)        ... done
Number of contracted basis functions           ...  344
Number of uncontracted basis functions         ...  568
Initializing the DKH file                      ... done
One center approximation for DKH is active
Finding unique atoms                      ... 2 atom types
 ATOMIC NUMBER  92
          ... doing integrals          ... Computing the DKH transformation
          ... Transforming V and pVp to p**2 space
          ... First transformation of V and pVp
          ... Second transformation of Veff
          ... Adding kinetic energy
          ... Back transformation of Veff to r-space
          ... Recontracting the H-matrix
          ... Computing the DKH correction to the H-matrix
          ... adding submatrics to 1 actual atoms
 ATOMIC NUMBER  17
          ... doing integrals          ... Computing the DKH transformation
          ... Transforming V and pVp to p**2 space
          ... First transformation of V and pVp
          ... Second transformation of Veff
          ... Adding kinetic energy
          ... Back transformation of Veff to r-space
          ... Recontracting the H-matrix
          ... Computing the DKH correction to the H-matrix
          ... adding submatrics to 5 actual atoms
Storing DKH matrices                           ... done
Getting S**(-1/2)                              ... done
Reading the original H-matrix                  ... done
Adding DKH correction to the H-matrix          ... done
Storing the new modified H-matrix              ... done


           ************************************************************
           *        Program running with 20 parallel MPI-processes    *
           *              working on a common directory               *
           ************************************************************
-------------------------------------------------------------------------------
                                 ORCA SCF
-------------------------------------------------------------------------------

------------
SCF SETTINGS
------------
Hamiltonian:
 Ab initio Hamiltonian  Method          .... Hartree-Fock(GTOs)

Relativistic Settings:
 Scalar relativistic method             .... Douglas-Kroll-Hess
 Order of DKH procedure    Order        ....    2
 Mode of DKH-treatment                  .... V=V(e,N)
 Speed of light used       Velit        ....       137.035989
 Cutoff-constant           Eps          ....            1e-10 


General Settings:
 Integral files         IntName         .... /home/nikolayandreadi_2125/_scratch/MP2/UCl5
 Hartree-Fock type      HFTyp           .... UHF
 Total Charge           Charge          ....    0
 Multiplicity           Mult            ....    2
 Number of Electrons    NEL             ....  177
 Basis Dimension        Dim             ....  344
 Nuclear Repulsion      ENuc            ....   2079.6099349361 Eh

Convergence Acceleration:
 DIIS                   CNVDIIS         .... on
   Start iteration      DIISMaxIt       ....     0
   Startup error        DIISStart       ....  0.200000
   # of expansion vecs  DIISMaxEq       ....     5
   Bias factor          DIISBfac        ....   1.050
   Max. coefficient     DIISMaxC        ....  10.000
 Newton-Raphson         CNVNR           .... off
 SOSCF                  CNVSOSCF        .... off
 Level Shifting         CNVShift        .... on
   Level shift para.    LevelShift      ....    0.2500
   Turn off err/grad.   ShiftErr        ....    0.0000
 Zerner damping         CNVZerner       .... off
 Static damping         CNVDamp         .... on
   Fraction old density DampFac         ....    0.8500
   Max. Damping (<1)    DampMax         ....    0.9800
   Min. Damping (>=0)   DampMin         ....    0.0000
   Turn off err/grad.   DampErr         ....    0.0300
 Fernandez-Rico         CNVRico         .... off

SCF Procedure:
 Maximum # iterations   MaxIter         ....  5000
 SCF integral mode      SCFMode         .... Direct
   Integral package                     .... LIBINT
 Reset frequeny         DirectResetFreq ....    20
 Integral Threshold     Thresh          ....  2.500e-11 Eh
 Primitive CutOff       TCut            ....  2.500e-12 Eh

Convergence Tolerance:
 Convergence Check Mode ConvCheckMode   .... Total+1el-Energy
 Convergence forced     ConvForced      .... 1
 Energy Change          TolE            ....  1.000e-08 Eh
 1-El. energy change                    ....  1.000e-05 Eh
 DIIS Error             TolErr          ....  5.000e-07


Diagonalization of the overlap matrix:
Smallest eigenvalue                        ... 4.000e-04
Time for diagonalization                   ...    0.025 sec
Threshold for overlap eigenvalues          ... 1.000e-08
Number of eigenvalues below threshold      ... 0
Time for construction of square roots      ...    0.015 sec
Total time needed                          ...    0.040 sec

--------------------
INITIAL GUESS: HCORE
--------------------
                      -----------------
                      INTIAL GUESS DONE 
                      -----------------
--------------
SCF ITERATIONS
--------------
ITER       Energy         Delta-E        Max-DP      RMS-DP      [F,P]     Damp
               ***  Starting incremental Fock matrix formation  ***
  0 -20081.4799029446   0.00000000000012.38559424  0.11849873 75.4376579 0.8500
  1 -23015.7246430570-2934.24474011248810.52825950  0.10060646 61.0408038 0.8500
                               ***Turning on DIIS***
  2 -24817.1307211081-1801.406078051055 8.94962188  0.08549115 49.8312566 0.8500
  3 -28269.4501983036-3452.319477195477 7.26134643  0.07127702 40.8075839 0.8500
  4 -28637.6073242224-368.157125918864 6.36399958  0.06078618 34.1692861 0.8500
  5 -28899.4984565544-261.891132331944 5.35915357  0.05171154 28.8300389 0.8500
  6 -29089.6889374791-190.190480924750 4.51650240  0.04398404 24.3832631 0.8500
  7 -29043.4948034639  46.194134015215 3.82626852  0.03767231 20.6369555 0.8500
  8 -29355.0893158671-311.594512403168 3.22481749  0.03183490 17.4277284 0.8500
  9 -29522.2933283805-167.204012513415 2.73671564  0.02698717 14.7557535 0.8500
 10 -29624.0786086550-101.785280274518 2.32927929  0.02293862 12.5121097 0.8500
 11 -29700.7703269143 -76.691718259273 1.98275567  0.01951399 10.6142550 0.8500
 12 -29768.6012651907 -67.830938276398 1.68542646  0.01659723  9.0034731 0.8500
 13 -29842.5934927012 -73.992227510498 1.43297283  0.01409935  7.6356329 0.8500
 14 -29906.3214456338 -63.727952932615 1.21741330  0.01197659  6.4769716 0.8500
 15 -29956.9504479041 -50.629002270329 1.03467436  0.01017806  5.4947954 0.8500
 16 -29998.3120330660 -41.361585161878 0.87999166  0.00865209  4.6613080 0.8500
 17 -30033.8680209420 -35.555987876014 0.74854093  0.00735469  3.9537921 0.8500
 18 -30065.2325528805 -31.364531938492 0.63656297  0.00625066  3.3532650 0.8500
 19 -30092.4752311567 -27.242678276147 0.54117595  0.00531178  2.8436453 0.8500
               *** Restarting incremental Fock matrix formation ***
                                   *** Resetting DIIS ***
 20 -30010.7109156792  81.764315477503 0.49767196  0.00467735  2.4112290 0.8500
 21 -30092.5160075798 -81.805091900671 0.39481996  0.00386957  1.9828613 0.8500
 22 -30134.8212765815 -42.305269001670 0.33241367  0.00324624  1.6523405 0.8500
 23 -30157.3120510183 -22.490774436839 0.28111963  0.00274900  1.3883849 0.8500
 24 -30171.5538499612 -14.241798942843 0.23903467  0.00233557  1.1726864 0.8500
 25 -30180.5532341749  -8.999384213705 0.20340442  0.00198783  0.9935431 0.8500
 26 -30189.1455441812  -8.592310006352 0.17335703  0.00169188  0.8425111 0.8500
 27 -30198.9172864576  -9.771742276356 0.14754377  0.00143791  0.7142983 0.8500
 28 -30207.6868825093  -8.769596051683 0.12537385  0.00122154  0.6055997 0.8500
 29 -30214.6988587535  -7.011976244212 0.10658153  0.00103811  0.5134833 0.8500
 30 -30220.2683545077  -5.569495754193 0.09070631  0.00088257  0.4353907 0.8500
 31 -30224.9783719487  -4.710017441023 0.07722666  0.00075037  0.3691688 0.8500
 32 -30229.1551853076  -4.176813358870 0.06571957  0.00063784  0.3130112 0.8500
 33 -30232.8160086897  -3.660823382128 0.05589171  0.00054210  0.2653970 0.8500
 34 -30235.9328669492  -3.116858259535 0.04752525  0.00046074  0.2250307 0.8500
 35 -30238.5532571157  -2.620390166423 0.04042078  0.00039162  0.1908075 0.8500
 36 -30240.7721695110  -2.218912395379 0.03438687  0.00033289  0.1617902 0.8500
 37 -30242.6734090691  -1.901239558050 0.02925433  0.00028297  0.1371861 0.8500
 38 -30244.3075826434  -1.634173574283 0.02488467  0.00024052  0.1163245 0.8500
 39 -30245.7058113425  -1.398228699145 0.02116575  0.00020443  0.0986365 0.8500
               *** Restarting incremental Fock matrix formation ***
                                   *** Resetting DIIS ***
 40 -30244.4215386474   1.284272695077 0.01771107  0.00017669  0.0836392 0.8500
 41 -30246.9536330654  -2.532094417969 0.01529157  0.00014805  0.0689648 0.8500
 42 -30248.5971715080  -1.643538442535 0.01299740  0.00012503  0.0575230 0.8500
 43 -30249.4483098659  -0.851138357939 0.01104748  0.00010621  0.0484587 0.8500
 44 -30250.0216948207  -0.573384954769 0.00941800  0.00009035  0.0410518 0.8500
 45 -30250.4140703192  -0.392375498548 0.00802561  0.00007695  0.0348520 0.8500
 46 -30250.8704961086  -0.456425789434 0.04565056  0.00043649  0.0295630 0.0000
 47 -30253.8065999737  -2.936103865017 0.00082843  0.00000883  0.0015902 0.0000
 48 -30253.8982504671  -0.091650493407 0.00063208  0.00000525  0.0013607 0.0000
 49 -30253.8109888318   0.087261635301 0.00034220  0.00000334  0.0005119 0.0000
 50 -30253.8045673665   0.006421465310 0.00022384  0.00000225  0.0005033 0.0000
 51 -30253.8087120663  -0.004144699815 0.00032697  0.00000265  0.0004988 0.0000
 52 -30253.8077881148   0.000923951498 0.00031186  0.00000201  0.0004800 0.0000
 53 -30253.8073599297   0.000428185071 0.00039060  0.00000227  0.0004629 0.0000
 54 -30253.8083299624  -0.000970032728 0.00051018  0.00000282  0.0004379 0.0000
 55 -30253.8065932394   0.001736723018 0.00076058  0.00000410  0.0004040 0.0000
 56 -30253.8086711148  -0.002077875433 0.00058257  0.00000312  0.0003838 0.0000
 57 -30253.8066571623   0.002013952493 0.00117648  0.00000620  0.0003507 0.0000
 58 -30253.8061663204   0.000490841940 0.00042654  0.00000235  0.0003245 0.0000
 59 -30253.8076653668  -0.001499046357 0.00252949  0.00001317  0.0002704 0.0000
               *** Restarting incremental Fock matrix formation ***
                                   *** Resetting DIIS ***
 60 -30253.8091911778  -0.001525811051 0.00008496  0.00000083  0.0002848 0.0000
 61 -30253.8091946585  -0.000003480654 0.00004556  0.00000053  0.0001452 0.0000
 62 -30253.8092174222  -0.000022763688 0.00004530  0.00000043  0.0001203 0.0000
 63 -30253.8093129085  -0.000095486314 0.00006480  0.00000050  0.0001229 0.0000
 64 -30253.8093550228  -0.000042114305 0.00008835  0.00000059  0.0001255 0.0000
 65 -30253.8094246092  -0.000069586386 0.00012946  0.00000079  0.0001216 0.0000
 66 -30253.8095921360  -0.000167526814 0.00020706  0.00000121  0.0001132 0.0000
 67 -30253.8094408403   0.000151295695 0.00019736  0.00000110  0.0001064 0.0000
 68 -30253.8096196526  -0.000178812268 0.00027208  0.00000149  0.0000983 0.0000
 69 -30253.8092459175   0.000373735085 0.00010778  0.00000062  0.0000893 0.0000
 70 -30253.8097891343  -0.000543216855 0.00051871  0.00000283  0.0000758 0.0000
 71 -30253.8101168583  -0.000327724018 0.00003511  0.00000024  0.0000692 0.0000
 72 -30253.8090093791   0.001107479213 0.00032383  0.00000179  0.0000448 0.0000
 73 -30253.8089886386   0.000020740543 0.00018352  0.00000107  0.0000502 0.0000
 74 -30253.8092418637  -0.000253225091 0.00013488  0.00000083  0.0000505 0.0000
 75 -30253.8091460811   0.000095782532 0.00006976  0.00000048  0.0000520 0.0000
 76 -30253.8091165096   0.000029571569 0.00003393  0.00000023  0.0000527 0.0000
 77 -30253.8091637264  -0.000047216792 0.00002354  0.00000015  0.0000547 0.0000
 78 -30253.8092217905  -0.000058064103 0.00001046  0.00000006  0.0000561 0.0000
 79 -30253.8092344584  -0.000012667926 0.00000682  0.00000004  0.0000572 0.0000
               *** Restarting incremental Fock matrix formation ***
                                   *** Resetting DIIS ***
 80 -30253.8091942602   0.000040198182 0.00001954  0.00000011  0.0000579 0.0000
 81 -30253.8091946181  -0.000000357904 0.00001986  0.00000011  0.0000582 0.0000
 82 -30253.8092034107  -0.000008792587 0.00001308  0.00000007  0.0000586 0.0000
 83 -30253.8092060757  -0.000002664990 0.00000222  0.00000001  0.0000592 0.0000
 84 -30253.8092146371  -0.000008561368 0.00000038  0.00000000  0.0000599 0.0000
 85 -30253.8092143081   0.000000328939 0.00001207  0.00000006  0.0000600 0.0000
 86 -30253.8091988583   0.000015449856 0.00001464  0.00000008  0.0000597 0.0000
 87 -30253.8091954144   0.000003443849 0.00001326  0.00000007  0.0000600 0.0000
 88 -30253.8092016667  -0.000006252292 0.00000449  0.00000002  0.0000605 0.0000
 89 -30253.8092020460  -0.000000379241 0.00000258  0.00000001  0.0000611 0.0000
 90 -30253.8091986555   0.000003390407 0.00001004  0.00000005  0.0000614 0.0000
 91 -30253.8091987887  -0.000000133157 0.00001392  0.00000007  0.0000612 0.0000
 92 -30253.8091975474   0.000001241329 0.00001357  0.00000007  0.0000613 0.0000
 93 -30253.8091990860  -0.000001538647 0.00000686  0.00000004  0.0000617 0.0000
 94 -30253.8092033267  -0.000004240712 0.00000059  0.00000000  0.0000622 0.0000
 95 -30253.8092023289   0.000000997788 0.00000496  0.00000003  0.0000626 0.0000
 96 -30253.8091977816   0.000004547313 0.00001292  0.00000007  0.0000626 0.0000
 97 -30253.8091959902   0.000001791468 0.00001539  0.00000008  0.0000626 0.0000
 98 -30253.8091967755  -0.000000785371 0.00001034  0.00000005  0.0000628 0.0000
 99 -30253.8091987305  -0.000001954955 0.00000084  0.00000001  0.0000633 0.0000
               *** Restarting incremental Fock matrix formation ***
                                   *** Resetting DIIS ***
100 -30253.8091943879   0.000004342546 0.00002145  0.00000011  0.0000639 0.0000
101 -30253.8091944014  -0.000000013504 0.00002147  0.00000011  0.0000638 0.0000
102 -30253.8091961156  -0.000001714117 0.00001351  0.00000007  0.0000640 0.0000
103 -30253.8091992248  -0.000003109242 0.00000375  0.00000002  0.0000647 0.0000
104 -30253.8092004302  -0.000001205346 0.00000068  0.00000000  0.0000655 0.0000
105 -30253.8091982026   0.000002227505 0.00001458  0.00000007  0.0000654 0.0000
106 -30253.8091956025   0.000002600122 0.00001682  0.00000009  0.0000651 0.0000
107 -30253.8091951397   0.000000462860 0.00001387  0.00000007  0.0000654 0.0000
108 -30253.8091964812  -0.000001341541 0.00000287  0.00000002  0.0000659 0.0000
109 -30253.8091973251  -0.000000843873 0.00000343  0.00000002  0.0000666 0.0000
110 -30253.8091961441   0.000001180990 0.00001161  0.00000006  0.0000669 0.0000
111 -30253.8091954530   0.000000691041 0.00001656  0.00000008  0.0000666 0.0000
112 -30253.8091953946   0.000000058415 0.00001516  0.00000008  0.0000667 0.0000
113 -30253.8091964010  -0.000001006378 0.00000554  0.00000003  0.0000672 0.0000
114 -30253.8091977439  -0.000001342938 0.00000282  0.00000001  0.0000678 0.0000
115 -30253.8091966987   0.000001045206 0.00001027  0.00000005  0.0000682 0.0000
116 -30253.8091955625   0.000001136221 0.00001471  0.00000008  0.0000680 0.0000
117 -30253.8091952457   0.000000316839 0.00001502  0.00000008  0.0000681 0.0000
118 -30253.8091957570  -0.000000511289 0.00000813  0.00000004  0.0000685 0.0000
119 -30253.8091966154  -0.000000858388 0.00000042  0.00000000  0.0000690 0.0000
               *** Restarting incremental Fock matrix formation ***
                                   *** Resetting DIIS ***
120 -30253.8091945318   0.000002083521 0.00002333  0.00000012  0.0000695 0.0000
121 -30253.8091945448  -0.000000012926 0.00002344  0.00000012  0.0000693 0.0000
122 -30253.8091953974  -0.000000852637 0.00001460  0.00000008  0.0000696 0.0000
123 -30253.8091969912  -0.000001593817 0.00000451  0.00000002  0.0000703 0.0000
124 -30253.8091974840  -0.000000492761 0.00000083  0.00000000  0.0000712 0.0000
125 -30253.8091963315   0.000001152461 0.00001597  0.00000008  0.0000711 0.0000
126 -30253.8091951712   0.000001160348 0.00001838  0.00000009  0.0000708 0.0000
127 -30253.8091950771   0.000000094027 0.00001479  0.00000008  0.0000711 0.0000
128 -30253.8091959629  -0.000000885739 0.00000243  0.00000001  0.0000717 0.0000
129 -30253.8091965180  -0.000000555134 0.00000367  0.00000002  0.0000724 0.0000
130 -30253.8091956976   0.000000820401 0.00001282  0.00000006  0.0000726 0.0000
131 -30253.8091951877   0.000000509935 0.00001830  0.00000009  0.0000723 0.0000
132 -30253.8091952202  -0.000000032487 0.00001629  0.00000008  0.0000725 0.0000
133 -30253.8091959843  -0.000000764125 0.00000508  0.00000003  0.0000730 0.0000
134 -30253.8091968678  -0.000000883556 0.00000345  0.00000002  0.0000737 0.0000
135 -30253.8091961004   0.000000767406 0.00001150  0.00000006  0.0000741 0.0000
136 -30253.8091953574   0.000000743083 0.00001663  0.00000008  0.0000738 0.0000
137 -30253.8091952141   0.000000143289 0.00001641  0.00000008  0.0000740 0.0000
138 -30253.8091957206  -0.000000506534 0.00000784  0.00000004  0.0000744 0.0000
139 -30253.8091964456  -0.000000725002 0.00000148  0.00000001  0.0000750 0.0000
               *** Restarting incremental Fock matrix formation ***
                                   *** Resetting DIIS ***
140 -30253.8091946977   0.000001747918 0.00002534  0.00000013  0.0000755 0.0000
141 -30253.8091947122  -0.000000014494 0.00002555  0.00000013  0.0000753 0.0000
142 -30253.8091954439  -0.000000731765 0.00001586  0.00000008  0.0000756 0.0000
143 -30253.8091968296  -0.000001385644 0.00000513  0.00000003  0.0000764 0.0000
144 -30253.8091972137  -0.000000384131 0.00000096  0.00000000  0.0000773 0.0000
145 -30253.8091962209   0.000000992790 0.00001734  0.00000009  0.0000773 0.0000
146 -30253.8091952719   0.000000949036 0.00001999  0.00000010  0.0000768 0.0000
147 -30253.8091952457   0.000000026150 0.00001591  0.00000008  0.0000772 0.0000
148 -30253.8091961024  -0.000000856679 0.00000229  0.00000001  0.0000778 0.0000
149 -30253.8091966290  -0.000000526587 0.00000394  0.00000002  0.0000786 0.0000
150 -30253.8091958294   0.000000799613 0.00001401  0.00000007  0.0000789 0.0000
151 -30253.8091953245   0.000000504846 0.00002000  0.00000010  0.0000785 0.0000
152 -30253.8091953838  -0.000000059248 0.00001754  0.00000009  0.0000787 0.0000
153 -30253.8091961630  -0.000000779241 0.00000497  0.00000003  0.0000793 0.0000
154 -30253.8091970029  -0.000000839882 0.00000387  0.00000002  0.0000800 0.0000
155 -30253.8091962344   0.000000768483 0.00001266  0.00000006  0.0000804 0.0000
156 -30253.8091955166   0.000000717813 0.00001838  0.00000009  0.0000801 0.0000
157 -30253.8091954092   0.000000107437 0.00001780  0.00000009  0.0000803 0.0000
158 -30253.8091959734  -0.000000564178 0.00000790  0.00000004  0.0000807 0.0000
159 -30253.8091967249  -0.000000751512 0.00000210  0.00000001  0.0000815 0.0000
               *** Restarting incremental Fock matrix formation ***
                                   *** Resetting DIIS ***
160 -30253.8091948905   0.000001834378 0.00002751  0.00000014  0.0000820 0.0000
161 -30253.8091949083  -0.000000017833 0.00002776  0.00000014  0.0000817 0.0000
162 -30253.8091956800  -0.000000771666 0.00001717  0.00000009  0.0000820 0.0000
163 -30253.8091971383  -0.000001458255 0.00000575  0.00000003  0.0000829 0.0000
164 -30253.8091975332  -0.000000394903 0.00000108  0.00000001  0.0000839 0.0000
165 -30253.8091964930   0.000001040196 0.00001887  0.00000009  0.0000838 0.0000
166 -30253.8091955021   0.000000990851 0.00002174  0.00000011  0.0000834 0.0000
167 -30253.8091954892   0.000000012915 0.00001714  0.00000009  0.0000837 0.0000
168 -30253.8091964255  -0.000000936347 0.00000219  0.00000001  0.0000845 0.0000
169 -30253.8091969760  -0.000000550415 0.00000422  0.00000002  0.0000853 0.0000
170 -30253.8091961114   0.000000864587 0.00001528  0.00000008  0.0000856 0.0000
171 -30253.8091955670   0.000000544358 0.00002182  0.00000011  0.0000852 0.0000
172 -30253.8091956460  -0.000000078999 0.00001894  0.00000010  0.0000854 0.0000
173 -30253.8091965127  -0.000000866719 0.00000502  0.00000003  0.0000860 0.0000
174 -30253.8091974177  -0.000000904965 0.00000430  0.00000002  0.0000869 0.0000
175 -30253.8091965676   0.000000850057 0.00001387  0.00000007  0.0000873 0.0000
176 -30253.8091957787   0.000000788910 0.00002018  0.00000010  0.0000869 0.0000
177 -30253.8091956768   0.000000101925 0.00001932  0.00000010  0.0000871 0.0000
178 -30253.8091963271  -0.000000650263 0.00000814  0.00000004  0.0000876 0.0000
179 -30253.8091971578  -0.000000830707 0.00000261  0.00000001  0.0000884 0.0000
               *** Restarting incremental Fock matrix formation ***
                                   *** Resetting DIIS ***
180 -30253.8091951156   0.000002042139 0.00002984  0.00000015  0.0000889 0.0000
181 -30253.8091951360  -0.000000020373 0.00003014  0.00000015  0.0000887 0.0000
182 -30253.8091959930  -0.000000856991 0.00001860  0.00000010  0.0000890 0.0000
183 -30253.8091976095  -0.000001616456 0.00000636  0.00000003  0.0000899 0.0000
184 -30253.8091980463  -0.000000436892 0.00000120  0.00000001  0.0000910 0.0000
185 -30253.8091969016   0.000001144770 0.00002049  0.00000010  0.0000909 0.0000
186 -30253.8091957989   0.000001102722 0.00002360  0.00000012  0.0000904 0.0000
187 -30253.8091957837   0.000000015163 0.00001852  0.00000010  0.0000908 0.0000
188 -30253.8091968361  -0.000001052373 0.00000219  0.00000001  0.0000916 0.0000
189 -30253.8091974315  -0.000000595406 0.00000454  0.00000002  0.0000926 0.0000
190 -30253.8091964679   0.000000963541 0.00001662  0.00000008  0.0000928 0.0000
191 -30253.8091958707   0.000000597181 0.00002374  0.00000012  0.0000924 0.0000
192 -30253.8091959707  -0.000000099946 0.00002048  0.00000010  0.0000926 0.0000
193 -30253.8091969559  -0.000000985219 0.00000522  0.00000003  0.0000933 0.0000
194 -30253.8091979664  -0.000001010536 0.00000471  0.00000002  0.0000942 0.0000
195 -30253.8091970062   0.000000960281 0.00001512  0.00000008  0.0000946 0.0000
196 -30253.8091961101   0.000000896031 0.00002203  0.00000011  0.0000943 0.0000
197 -30253.8091960035   0.000000106633 0.00002094  0.00000011  0.0000945 0.0000
198 -30253.8091967501  -0.000000746619 0.00000855  0.00000005  0.0000950 0.0000
199 -30253.8091976812  -0.000000931112 0.00000304  0.00000001  0.0000959 0.0000
               *** Restarting incremental Fock matrix formation ***
                                   *** Resetting DIIS ***
200 -30253.8091953791   0.000002302102 0.00003236  0.00000016  0.0000964 0.0000
201 -30253.8091954027  -0.000000023574 0.00003270  0.00000017  0.0000962 0.0000
202 -30253.8091963718  -0.000000969114 0.00002015  0.00000010  0.0000965 0.0000
203 -30253.8091981958  -0.000001823933 0.00000697  0.00000003  0.0000975 0.0000
204 -30253.8091986920  -0.000000496202 0.00000132  0.00000001  0.0000987 0.0000
205 -30253.8091974077   0.000001284236 0.00002225  0.00000011  0.0000986 0.0000
206 -30253.8091961555   0.000001252240 0.00002562  0.00000013  0.0000981 0.0000
207 -30253.8091961385   0.000000016968 0.00002003  0.00000010  0.0000985 0.0000
208 -30253.8091973330  -0.000001194498 0.00000225  0.00000001  0.0000994 0.0000
209 -30253.8091979969  -0.000000663895 0.00000490  0.00000002  0.0001004 0.0000
210 -30253.8091969102   0.000001086675 0.00001806  0.00000009  0.0001006 0.0000
211 -30253.8091962389   0.000000671298 0.00002579  0.00000013  0.0001002 0.0000
212 -30253.8091963591  -0.000000120155 0.00002216  0.00000011  0.0001005 0.0000
213 -30253.8091974854  -0.000001126347 0.00000550  0.00000003  0.0001012 0.0000
214 -30253.8091986312  -0.000001145811 0.00000514  0.00000003  0.0001022 0.0000
215 -30253.8091975368   0.000001094428 0.00001645  0.00000008  0.0001026 0.0000
216 -30253.8091965103   0.000001026507 0.00002398  0.00000012  0.0001022 0.0000
217 -30253.8091963938   0.000000116528 0.00002271  0.00000012  0.0001024 0.0000
218 -30253.8091972560  -0.000000862234 0.00000908  0.00000005  0.0001030 0.0000
219 -30253.8091983144  -0.000001058423 0.00000343  0.00000002  0.0001040 0.0000
               *** Restarting incremental Fock matrix formation ***
                                   *** Resetting DIIS ***
220 -30253.8091956881   0.000002626384 0.00003509  0.00000018  0.0001046 0.0000
221 -30253.8091957154  -0.000000027365 0.00003546  0.00000018  0.0001043 0.0000
222 -30253.8091968194  -0.000001104025 0.00002184  0.00000011  0.0001046 0.0000
223 -30253.8091989061  -0.000002086614 0.00000761  0.00000004  0.0001057 0.0000
224 -30253.8091994730  -0.000000566906 0.00000144  0.00000001  0.0001070 0.0000
225 -30253.8091980103   0.000001462646 0.00002413  0.00000012  0.0001069 0.0000
226 -30253.8091965787   0.000001431610 0.00002779  0.00000014  0.0001063 0.0000
227 -30253.8091965573   0.000000021417 0.00002168  0.00000011  0.0001068 0.0000
228 -30253.8091979237  -0.000001366374 0.00000235  0.00000001  0.0001077 0.0000
229 -30253.8091986733  -0.000000749667 0.00000529  0.00000003  0.0001089 0.0000
230 -30253.8091974346   0.000001238765 0.00001960  0.00000010  0.0001091 0.0000
231 -30253.8091966738   0.000000760803 0.00002800  0.00000014  0.0001087 0.0000
232 -30253.8091968189  -0.000000145141 0.00002400  0.00000012  0.0001089 0.0000
233 -30253.8091981171  -0.000001298184 0.00000586  0.00000003  0.0001097 0.0000
234 -30253.8091994293  -0.000001312190 0.00000559  0.00000003  0.0001108 0.0000
235 -30253.8091981728   0.000001256452 0.00001787  0.00000009  0.0001113 0.0000
236 -30253.8091969881   0.000001184711 0.00002607  0.00000013  0.0001108 0.0000
237 -30253.8091968553   0.000000132844 0.00002462  0.00000013  0.0001111 0.0000
238 -30253.8091978507  -0.000000995449 0.00000973  0.00000005  0.0001117 0.0000
239 -30253.8091990624  -0.000001211640 0.00000380  0.00000002  0.0001128 0.0000
               *** Restarting incremental Fock matrix formation ***
                                   *** Resetting DIIS ***
240 -30253.8091960506   0.000003011788 0.00003804  0.00000019  0.0001134 0.0000
241 -30253.8091960836  -0.000000033018 0.00003845  0.00000019  0.0001131 0.0000
242 -30253.8091973557  -0.000001272070 0.00002367  0.00000012  0.0001135 0.0000
243 -30253.8091997531  -0.000002397479 0.00000829  0.00000004  0.0001146 0.0000
244 -30253.8092004094  -0.000000656270 0.00000157  0.00000001  0.0001161 0.0000
245 -30253.8091987330   0.000001676373 0.00002618  0.00000013  0.0001160 0.0000
246 -30253.8091970791   0.000001653949 0.00003014  0.00000015  0.0001153 0.0000
247 -30253.8091970528   0.000000026314 0.00002348  0.00000012  0.0001158 0.0000
248 -30253.8091986254  -0.000001572658 0.00000249  0.00000002  0.0001168 0.0000
249 -30253.8091994830  -0.000000857537 0.00000573  0.00000003  0.0001180 0.0000
250 -30253.8091980615   0.000001421515 0.00002127  0.00000011  0.0001183 0.0000
251 -30253.8091971882   0.000000873213 0.00003037  0.00000015  0.0001178 0.0000
252 -30253.8091973577  -0.000000169464 0.00002600  0.00000013  0.0001181 0.0000
253 -30253.8091988568  -0.000001499120 0.00000629  0.00000003  0.0001189 0.0000
254 -30253.8092003668  -0.000001510020 0.00000607  0.00000003  0.0001201 0.0000
255 -30253.8091989199   0.000001446904 0.00001940  0.00000010  0.0001207 0.0000
256 -30253.8091975506   0.000001369379 0.00002830  0.00000014  0.0001202 0.0000
257 -30253.8091973995   0.000000151013 0.00002668  0.00000014  0.0001204 0.0000
258 -30253.8091985528  -0.000001153243 0.00001047  0.00000006  0.0001211 0.0000
259 -30253.8091999503  -0.000001397482 0.00000417  0.00000002  0.0001223 0.0000
               *** Restarting incremental Fock matrix formation ***
                                   *** Resetting DIIS ***
260 -30253.8091964763   0.000003473950 0.00004124  0.00000021  0.0001230 0.0000
261 -30253.8091965146  -0.000000038235 0.00004169  0.00000021  0.0001226 0.0000
262 -30253.8091979828  -0.000001468205 0.00002566  0.00000013  0.0001230 0.0000
263 -30253.8092007599  -0.000002777128 0.00000900  0.00000004  0.0001243 0.0000
264 -30253.8092015195  -0.000000759657 0.00000170  0.00000001  0.0001258 0.0000
265 -30253.8091995843   0.000001935292 0.00002838  0.00000014  0.0001257 0.0000
266 -30253.8091976711   0.000001913129 0.00003268  0.00000017  0.0001250 0.0000
267 -30253.8091976384   0.000000032727 0.00002544  0.00000013  0.0001256 0.0000
268 -30253.8091994592  -0.000001820827 0.00000267  0.00000002  0.0001266 0.0000
269 -30253.8092004476  -0.000000988381 0.00000620  0.00000003  0.0001280 0.0000
270 -30253.8091988061   0.000001641478 0.00002306  0.00000012  0.0001283 0.0000
271 -30253.8091977982   0.000001007931 0.00003294  0.00000017  0.0001277 0.0000
272 -30253.8091979966  -0.000000198419 0.00002818  0.00000014  0.0001280 0.0000
273 -30253.8091997375  -0.000001740911 0.00000677  0.00000004  0.0001289 0.0000
274 -30253.8092014870  -0.000001749449 0.00000659  0.00000003  0.0001303 0.0000
275 -30253.8091998091   0.000001677854 0.00002105  0.00000011  0.0001308 0.0000
276 -30253.8091982205   0.000001588596 0.00003070  0.00000016  0.0001303 0.0000
277 -30253.8091980476   0.000000172902 0.00002892  0.00000015  0.0001305 0.0000
278 -30253.8091993895  -0.000001341905 0.00001130  0.00000006  0.0001313 0.0000
279 -30253.8092010111  -0.000001621571 0.00000455  0.00000002  0.0001326 0.0000
               *** Restarting incremental Fock matrix formation ***
                                   *** Resetting DIIS ***
280 -30253.8091969764   0.000004034693 0.00004471  0.00000023  0.0001333 0.0000
281 -30253.8091970219  -0.000000045486 0.00004520  0.00000023  0.0001329 0.0000
282 -30253.8091987277  -0.000001705801 0.00002781  0.00000014  0.0001334 0.0000
283 -30253.8092019435  -0.000003215799 0.00000977  0.00000005  0.0001348 0.0000
284 -30253.8092028316  -0.000000888089 0.00000185  0.00000001  0.0001364 0.0000
285 -30253.8092005939   0.000002237655 0.00003077  0.00000015  0.0001363 0.0000
286 -30253.8091983669   0.000002227029 0.00003543  0.00000018  0.0001355 0.0000
287 -30253.8091983279   0.000000039039 0.00002757  0.00000014  0.0001361 0.0000
288 -30253.8092004446  -0.000002116736 0.00000288  0.00000002  0.0001373 0.0000
289 -30253.8092015907  -0.000001146131 0.00000672  0.00000003  0.0001387 0.0000
290 -30253.8091996866   0.000001904082 0.00002501  0.00000013  0.0001391 0.0000
291 -30253.8091985175   0.000001169159 0.00003571  0.00000018  0.0001385 0.0000
292 -30253.8091987497  -0.000000232169 0.00003054  0.00000016  0.0001388 0.0000
293 -30253.8092007744  -0.000002024775 0.00000732  0.00000004  0.0001398 0.0000
294 -30253.8092028091  -0.000002034703 0.00000714  0.00000004  0.0001412 0.0000
295 -30253.8092008605   0.000001948592 0.00002282  0.00000011  0.0001418 0.0000
296 -30253.8091990098   0.000001850771 0.00003329  0.00000017  0.0001413 0.0000
297 -30253.8091988082   0.000000201588 0.00003135  0.00000016  0.0001415 0.0000
298 -30253.8092003696  -0.000001561435 0.00001223  0.00000007  0.0001424 0.0000
299 -30253.8092022545  -0.000001884855 0.00000495  0.00000002  0.0001437 0.0000
               *** Restarting incremental Fock matrix formation ***
                                   *** Resetting DIIS ***
300 -30253.8091975641   0.000004690410 0.00004847  0.00000024  0.0001445 0.0000
301 -30253.8091976179  -0.000000053795 0.00004899  0.00000025  0.0001441 0.0000
302 -30253.8091996057  -0.000001987835 0.00003014  0.00000016  0.0001446 0.0000
303 -30253.8092033491  -0.000003743422 0.00001059  0.00000005  0.0001461 0.0000
304 -30253.8092043876  -0.000001038446 0.00000200  0.00000001  0.0001479 0.0000
305 -30253.8092017855   0.000002602101 0.00003336  0.00000017  0.0001478 0.0000
306 -30253.8091991865   0.000002598972 0.00003841  0.00000020  0.0001469 0.0000
307 -30253.8091991393   0.000000047185 0.00002989  0.00000015  0.0001476 0.0000
308 -30253.8092016074  -0.000002468121 0.00000312  0.00000002  0.0001489 0.0000
309 -30253.8092029411  -0.000001333647 0.00000728  0.00000004  0.0001504 0.0000
310 -30253.8092007242   0.000002216853 0.00002711  0.00000014  0.0001508 0.0000
311 -30253.8091993621   0.000001362117 0.00003871  0.00000020  0.0001501 0.0000
312 -30253.8091996312  -0.000000269072 0.00003310  0.00000017  0.0001505 0.0000
313 -30253.8092019911  -0.000002359950 0.00000793  0.00000004  0.0001516 0.0000
314 -30253.8092043629  -0.000002371773 0.00000774  0.00000004  0.0001531 0.0000
315 -30253.8092020935   0.000002269360 0.00002474  0.00000012  0.0001538 0.0000
316 -30253.8091999371   0.000002156481 0.00003609  0.00000018  0.0001531 0.0000
317 -30253.8091997033   0.000000233711 0.00003398  0.00000017  0.0001534 0.0000
318 -30253.8092015258  -0.000001822504 0.00001325  0.00000007  0.0001544 0.0000
319 -30253.8092037254  -0.000002199522 0.00000536  0.00000003  0.0001558 0.0000
               *** Restarting incremental Fock matrix formation ***
                                   *** Resetting DIIS ***
320 -30253.8091982546   0.000005470807 0.00005253  0.00000027  0.0001567 0.0000
321 -30253.8091983180  -0.000000063410 0.00005310  0.00000027  0.0001562 0.0000
322 -30253.8092006367  -0.000002318688 0.00003267  0.00000017  0.0001567 0.0000
323 -30253.8092050059  -0.000004369227 0.00001148  0.00000006  0.0001584 0.0000
324 -30253.8092062200  -0.000001214132 0.00000217  0.00000001  0.0001603 0.0000
325 -30253.8092031869   0.000003033070 0.00003615  0.00000018  0.0001602 0.0000
326 -30253.8092001524   0.000003034525 0.00004163  0.00000021  0.0001593 0.0000
327 -30253.8092000972   0.000000055185 0.00003239  0.00000017  0.0001600 0.0000
328 -30253.8092029783  -0.000002881105 0.00000338  0.00000002  0.0001614 0.0000
329 -30253.8092045373  -0.000001558990 0.00000789  0.00000004  0.0001631 0.0000
330 -30253.8092019513   0.000002586032 0.00002938  0.00000015  0.0001635 0.0000
331 -30253.8092003604   0.000001590884 0.00004195  0.00000021  0.0001627 0.0000
332 -30253.8092006756  -0.000000315235 0.00003588  0.00000018  0.0001631 0.0000
333 -30253.8092034330  -0.000002757333 0.00000861  0.00000005  0.0001643 0.0000
334 -30253.8092062052  -0.000002772191 0.00000838  0.00000004  0.0001660 0.0000
335 -30253.8092035562   0.000002648943 0.00002681  0.00000013  0.0001667 0.0000
336 -30253.8092010360   0.000002520210 0.00003911  0.00000020  0.0001660 0.0000
337 -30253.8092007606   0.000000275431 0.00003683  0.00000019  0.0001663 0.0000
338 -30253.8092028898  -0.000002129185 0.00001437  0.00000008  0.0001673 0.0000
339 -30253.8092054586  -0.000002568842 0.00000580  0.00000003  0.0001689 0.0000
               *** Restarting incremental Fock matrix formation ***
                                   *** Resetting DIIS ***
340 -30253.8091990662   0.000006392453 0.00005694  0.00000029  0.0001699 0.0000
341 -30253.8091991409  -0.000000074702 0.00005756  0.00000029  0.0001693 0.0000
342 -30253.8092018525  -0.000002711644 0.00003542  0.00000018  0.0001699 0.0000
343 -30253.8092069590  -0.000005106511 0.00001243  0.00000006  0.0001717 0.0000
344 -30253.8092083827  -0.000001423639 0.00000235  0.00000001  0.0001738 0.0000
345 -30253.8092048417   0.000003540943 0.00003918  0.00000020  0.0001737 0.0000
346 -30253.8092012897   0.000003552021 0.00004512  0.00000023  0.0001727 0.0000
347 -30253.8092012204   0.000000069322 0.00003512  0.00000018  0.0001735 0.0000
348 -30253.8092045891  -0.000003368765 0.00000368  0.00000002  0.0001749 0.0000
349 -30253.8092064115  -0.000001822380 0.00000855  0.00000004  0.0001768 0.0000
350 -30253.8092033906   0.000003020927 0.00003184  0.00000016  0.0001772 0.0000
351 -30253.8092015341   0.000001856468 0.00004547  0.00000023  0.0001764 0.0000
352 -30253.8092019020  -0.000000367887 0.00003889  0.00000020  0.0001769 0.0000
353 -30253.8092051269  -0.000003224915 0.00000935  0.00000005  0.0001781 0.0000
354 -30253.8092083724  -0.000003245463 0.00000908  0.00000004  0.0001799 0.0000
355 -30253.8092052756   0.000003096749 0.00002905  0.00000015  0.0001807 0.0000
356 -30253.8092023271   0.000002948531 0.00004238  0.00000022  0.0001800 0.0000
357 -30253.8092020036   0.000000323489 0.00003992  0.00000020  0.0001803 0.0000
358 -30253.8092044925  -0.000002488865 0.00001560  0.00000008  0.0001814 0.0000
359 -30253.8092074990  -0.000003006477 0.00000627  0.00000003  0.0001831 0.0000
               *** Restarting incremental Fock matrix formation ***
                                   *** Resetting DIIS ***
360 -30253.8092000201   0.000007478826 0.00006171  0.00000031  0.0001841 0.0000
361 -30253.8092001078  -0.000000087643 0.00006238  0.00000032  0.0001836 0.0000
362 -30253.8092032807  -0.000003172903 0.00003839  0.00000020  0.0001842 0.0000
363 -30253.8092092666  -0.000005985905 0.00001346  0.00000007  0.0001861 0.0000
364 -30253.8092109335  -0.000001666911 0.00000255  0.00000001  0.0001884 0.0000
365 -30253.8092067856   0.000004147943 0.00004246  0.00000021  0.0001882 0.0000
366 -30253.8092026275   0.000004158072 0.00004889  0.00000025  0.0001872 0.0000
367 -30253.8092025456   0.000000081855 0.00003807  0.00000020  0.0001880 0.0000
368 -30253.8092064873  -0.000003941692 0.00000401  0.00000003  0.0001896 0.0000
369 -30253.8092086262  -0.000002138862 0.00000927  0.00000005  0.0001916 0.0000
370 -30253.8092050906   0.000003535566 0.00003450  0.00000017  0.0001921 0.0000
371 -30253.8092029143   0.000002176352 0.00004927  0.00000025  0.0001913 0.0000
372 -30253.8092033449  -0.000000430609 0.00004215  0.00000022  0.0001917 0.0000
373 -30253.8092071203  -0.000003775433 0.00001016  0.00000006  0.0001931 0.0000
374 -30253.8092109239  -0.000003803623 0.00000983  0.00000005  0.0001950 0.0000
375 -30253.8092073009   0.000003622983 0.00003148  0.00000016  0.0001959 0.0000
376 -30253.8092038472   0.000003453741 0.00004591  0.00000023  0.0001951 0.0000
377 -30253.8092034654   0.000000381802 0.00004327  0.00000022  0.0001955 0.0000
378 -30253.8092063776  -0.000002912147 0.00001695  0.00000009  0.0001967 0.0000
379 -30253.8092098996  -0.000003522047 0.00000676  0.00000003  0.0001985 0.0000
               *** Restarting incremental Fock matrix formation ***
                                   *** Resetting DIIS ***
380 -30253.8092011416   0.000008758048 0.00006688  0.00000034  0.0001996 0.0000
381 -30253.8092012448  -0.000000103202 0.00006760  0.00000034  0.0001990 0.0000
382 -30253.8092049618  -0.000003717083 0.00004161  0.00000021  0.0001997 0.0000
383 -30253.8092119716  -0.000007009730 0.00001457  0.00000007  0.0002018 0.0000
384 -30253.8092139295  -0.000001957909 0.00000275  0.00000001  0.0002042 0.0000
385 -30253.8092090772   0.000004852292 0.00004601  0.00000023  0.0002041 0.0000
386 -30253.8092042014   0.000004875816 0.00005298  0.00000027  0.0002029 0.0000
387 -30253.8092041017   0.000000099688 0.00004127  0.00000021  0.0002038 0.0000
388 -30253.8092087208  -0.000004619134 0.00000438  0.00000003  0.0002056 0.0000
389 -30253.8092112307  -0.000002509914 0.00001005  0.00000005  0.0002077 0.0000
390 -30253.8092070889   0.000004141802 0.00003738  0.00000019  0.0002082 0.0000
391 -30253.8092045408   0.000002548164 0.00005338  0.00000027  0.0002073 0.0000
392 -30253.8092050416  -0.000000500844 0.00004569  0.00000023  0.0002078 0.0000
393 -30253.8092094623  -0.000004420672 0.00001106  0.00000006  0.0002093 0.0000
394 -30253.8092139232  -0.000004460882 0.00001064  0.00000005  0.0002114 0.0000
395 -30253.8092096800   0.000004243135 0.00003410  0.00000017  0.0002123 0.0000
396 -30253.8092056369   0.000004043075 0.00004973  0.00000025  0.0002115 0.0000
397 -30253.8092051876   0.000000449400 0.00004689  0.00000024  0.0002119 0.0000
398 -30253.8092085957  -0.000003408146 0.00001842  0.00000010  0.0002132 0.0000
399 -30253.8092127268  -0.000004131070 0.00000728  0.00000004  0.0002151 0.0000
               *** Restarting incremental Fock matrix formation ***
                                   *** Resetting DIIS ***
400 -30253.8092024597   0.000010267053 0.00007248  0.00000037  0.0002164 0.0000
401 -30253.8092025811  -0.000000121407 0.00007326  0.00000037  0.0002157 0.0000
402 -30253.8092069385  -0.000004357345 0.00004510  0.00000023  0.0002165 0.0000
403 -30253.8092151607  -0.000008222254 0.00001576  0.00000008  0.0002187 0.0000
404 -30253.8092174591  -0.000002298337 0.00000298  0.00000002  0.0002214 0.0000
405 -30253.8092117699   0.000005689195 0.00004985  0.00000025  0.0002212 0.0000
406 -30253.8092060529   0.000005716938 0.00005740  0.00000029  0.0002200 0.0000
407 -30253.8092059324   0.000000120548 0.00004474  0.00000023  0.0002210 0.0000
408 -30253.8092113449  -0.000005412498 0.00000480  0.00000003  0.0002228 0.0000
409 -30253.8092142945  -0.000002949622 0.00001089  0.00000005  0.0002252 0.0000
410 -30253.8092094410   0.000004853446 0.00004050  0.00000020  0.0002257 0.0000
411 -30253.8092064525   0.000002988530 0.00005782  0.00000029  0.0002247 0.0000
412 -30253.8092070355  -0.000000582939 0.00004953  0.00000025  0.0002253 0.0000
413 -30253.8092122127  -0.000005177219 0.00001204  0.00000007  0.0002269 0.0000
414 -30253.8092174476  -0.000005234964 0.00001151  0.00000006  0.0002292 0.0000
415 -30253.8092124782   0.000004969432 0.00003693  0.00000019  0.0002302 0.0000
416 -30253.8092077424   0.000004735823 0.00005385  0.00000027  0.0002292 0.0000
417 -30253.8092072116   0.000000530752 0.00005081  0.00000026  0.0002297 0.0000
418 -30253.8092112005  -0.000003988822 0.00002004  0.00000011  0.0002311 0.0000
419 -30253.8092160461  -0.000004845631 0.00000783  0.00000004  0.0002332 0.0000
               *** Restarting incremental Fock matrix formation ***
                                   *** Resetting DIIS ***
420 -30253.8092040093   0.000012036820 0.00007854  0.00000040  0.0002345 0.0000
421 -30253.8092041524  -0.000000143151 0.00007938  0.00000040  0.0002338 0.0000
422 -30253.8092092635  -0.000005111109 0.00004888  0.00000025  0.0002346 0.0000
423 -30253.8092189111  -0.000009647571 0.00001704  0.00000008  0.0002371 0.0000
424 -30253.8092216118  -0.000002700741 0.00000322  0.00000002  0.0002400 0.0000
425 -30253.8092149395   0.000006672304 0.00005400  0.00000027  0.0002398 0.0000
426 -30253.8092082301   0.000006709393 0.00006219  0.00000032  0.0002384 0.0000
427 -30253.8092080833   0.000000146829 0.00004850  0.00000025  0.0002395 0.0000
428 -30253.8092144294  -0.000006346116 0.00000526  0.00000003  0.0002416 0.0000
429 -30253.8092178978  -0.000003468369 0.00001181  0.00000006  0.0002441 0.0000
430 -30253.8092122061   0.000005691723 0.00004386  0.00000022  0.0002447 0.0000
431 -30253.8092087018   0.000003504309 0.00006263  0.00000032  0.0002436 0.0000
432 -30253.8092093799  -0.000000678105 0.00005368  0.00000028  0.0002442 0.0000
433 -30253.8092154467  -0.000006066835 0.00001312  0.00000007  0.0002459 0.0000
434 -30253.8092215928  -0.000006146136 0.00001244  0.00000006  0.0002484 0.0000
435 -30253.8092157709   0.000005821981 0.00003999  0.00000020  0.0002495 0.0000
436 -30253.8092102202   0.000005550643 0.00005830  0.00000030  0.0002485 0.0000
437 -30253.8092095905   0.000000629730 0.00005505  0.00000028  0.0002490 0.0000
438 -30253.8092142569  -0.000004666399 0.00002181  0.00000012  0.0002505 0.0000
439 -30253.8092199417  -0.000005684829 0.00000841  0.00000004  0.0002528 0.0000
               *** Restarting incremental Fock matrix formation ***
                                   *** Resetting DIIS ***
440 -30253.8092058309   0.000014110818 0.00008510  0.00000043  0.0002542 0.0000
441 -30253.8092059995  -0.000000168569 0.00008600  0.00000044  0.0002535 0.0000
442 -30253.8092119963  -0.000005996852 0.00005297  0.00000027  0.0002543 0.0000
443 -30253.8092233227  -0.000011326410 0.00001841  0.00000009  0.0002570 0.0000
444 -30253.8092264962  -0.000003173514 0.00000348  0.00000002  0.0002601 0.0000
445 -30253.8092186651   0.000007831190 0.00005849  0.00000029  0.0002599 0.0000
446 -30253.8092107911   0.000007873954 0.00006737  0.00000034  0.0002584 0.0000
447 -30253.8092106143   0.000000176806 0.00005258  0.00000027  0.0002596 0.0000
448 -30253.8092180549  -0.000007440634 0.00000578  0.00000004  0.0002618 0.0000
449 -30253.8092221398  -0.000004084854 0.00001280  0.00000006  0.0002645 0.0000
450 -30253.8092154633   0.000006676491 0.00004750  0.00000024  0.0002652 0.0000
451 -30253.8092113473   0.000004116024 0.00006782  0.00000035  0.0002641 0.0000
452 -30253.8092121337  -0.000000786415 0.00005818  0.00000030  0.0002647 0.0000
453 -30253.8092192403  -0.000007106602 0.00001432  0.00000008  0.0002666 0.0000
454 -30253.8092264588  -0.000007218521 0.00001344  0.00000007  0.0002692 0.0000
455 -30253.8092196388   0.000006819981 0.00004329  0.00000022  0.0002704 0.0000
456 -30253.8092131355   0.000006503302 0.00006310  0.00000032  0.0002693 0.0000
457 -30253.8092123884   0.000000747164 0.00005964  0.00000031  0.0002699 0.0000
458 -30253.8092178477  -0.000005459373 0.00002375  0.00000013  0.0002715 0.0000
459 -30253.8092245203  -0.000006672537 0.00000901  0.00000004  0.0002740 0.0000
               *** Restarting incremental Fock matrix formation ***
                                   *** Resetting DIIS ***
460 -30253.8092079725   0.000016547750 0.00009220  0.00000047  0.0002756 0.0000
461 -30253.8092081708  -0.000000198284 0.00009317  0.00000047  0.0002747 0.0000
462 -30253.8092152069  -0.000007036077 0.00005741  0.00000030  0.0002757 0.0000
463 -30253.8092284995  -0.000013292651 0.00001989  0.00000010  0.0002785 0.0000
464 -30253.8092322319  -0.000003732348 0.00000376  0.00000002  0.0002820 0.0000
465 -30253.8092230458   0.000009186064 0.00006334  0.00000032  0.0002817 0.0000
466 -30253.8092138028   0.000009243027 0.00007296  0.00000037  0.0002801 0.0000
467 -30253.8092135867   0.000000216096 0.00005700  0.00000029  0.0002814 0.0000
468 -30253.8092223117  -0.000008724990 0.00000636  0.00000004  0.0002838 0.0000
469 -30253.8092271226  -0.000004810940 0.00001388  0.00000007  0.0002867 0.0000
470 -30253.8092192906   0.000007832030 0.00005144  0.00000026  0.0002875 0.0000
471 -30253.8092144596   0.000004830956 0.00007343  0.00000037  0.0002862 0.0000
472 -30253.8092153721  -0.000000912500 0.00006305  0.00000032  0.0002869 0.0000
473 -30253.8092236960  -0.000008323823 0.00001564  0.00000009  0.0002889 0.0000
474 -30253.8092321780  -0.000008482042 0.00001452  0.00000007  0.0002918 0.0000
475 -30253.8092241885   0.000007989496 0.00004685  0.00000024  0.0002931 0.0000
476 -30253.8092165672   0.000007621304 0.00006827  0.00000035  0.0002919 0.0000
477 -30253.8092156786   0.000000888613 0.00006461  0.00000033  0.0002925 0.0000
478 -30253.8092220610  -0.000006382448 0.00002588  0.00000014  0.0002943 0.0000
479 -30253.8092298936  -0.000007832561 0.00000962  0.00000005  0.0002970 0.0000
               *** Restarting incremental Fock matrix formation ***
                                   *** Resetting DIIS ***
480 -30253.8092104903   0.000019403276 0.00009988  0.00000051  0.0002987 0.0000
481 -30253.8092107241  -0.000000233777 0.00010091  0.00000051  0.0002978 0.0000
482 -30253.8092189812  -0.000008257150 0.00006221  0.00000032  0.0002988 0.0000
483 -30253.8092345844  -0.000015603149 0.00002147  0.00000011  0.0003019 0.0000
484 -30253.8092389751  -0.000004390666 0.00000406  0.00000002  0.0003056 0.0000
485 -30253.8092281974   0.000010777694 0.00006859  0.00000034  0.0003053 0.0000
486 -30253.8092173448   0.000010852589 0.00007901  0.00000040  0.0003036 0.0000
487 -30253.8092170811   0.000000263641 0.00006179  0.00000032  0.0003050 0.0000
488 -30253.8092273113  -0.000010230193 0.00000702  0.00000004  0.0003076 0.0000
489 -30253.8092329826  -0.000005671238 0.00001505  0.00000007  0.0003108 0.0000
490 -30253.8092237944   0.000009188210 0.00005568  0.00000028  0.0003116 0.0000
491 -30253.8092181221   0.000005672293 0.00007949  0.00000041  0.0003102 0.0000
492 -30253.8092191767  -0.000001054650 0.00006833  0.00000035  0.0003110 0.0000
493 -30253.8092289216  -0.000009744861 0.00001710  0.00000010  0.0003131 0.0000
494 -30253.8092388875  -0.000009965912 0.00001567  0.00000008  0.0003163 0.0000
495 -30253.8092295326   0.000009354888 0.00005069  0.00000026  0.0003177 0.0000
496 -30253.8092206065   0.000008926108 0.00007384  0.00000038  0.0003164 0.0000
497 -30253.8092195469   0.000001059601 0.00006997  0.00000036  0.0003170 0.0000
498 -30253.8092270044  -0.000007457518 0.00002823  0.00000015  0.0003189 0.0000
499 -30253.8092361967  -0.000009192307 0.00001026  0.00000005  0.0003218 0.0000
               *** Restarting incremental Fock matrix formation ***
                                   *** Resetting DIIS ***
500 -30253.8092134505   0.000022746179 0.00010818  0.00000055  0.0003237 0.0000
501 -30253.8092137257  -0.000000275155 0.00010929  0.00000056  0.0003227 0.0000
502 -30253.8092234139  -0.000009688243 0.00006740  0.00000035  0.0003238 0.0000
503 -30253.8092417354  -0.000018321436 0.00002315  0.00000011  0.0003272 0.0000
504 -30253.8092468999  -0.000005164533 0.00000438  0.00000002  0.0003312 0.0000
505 -30253.8092342503   0.000012649616 0.00007425  0.00000037  0.0003309 0.0000
506 -30253.8092215111   0.000012739209 0.00008554  0.00000044  0.0003291 0.0000
507 -30253.8092211900   0.000000321106 0.00006698  0.00000035  0.0003306 0.0000
508 -30253.8092331793  -0.000011989352 0.00000776  0.00000005  0.0003333 0.0000
509 -30253.8092398721  -0.000006692761 0.00001631  0.00000008  0.0003368 0.0000
510 -30253.8092290946   0.000010777483 0.00006027  0.00000030  0.0003377 0.0000
511 -30253.8092224311   0.000006663504 0.00008602  0.00000044  0.0003362 0.0000
512 -30253.8092236470  -0.000001215893 0.00007404  0.00000038  0.0003370 0.0000
513 -30253.8092350517  -0.000011404663 0.00001872  0.00000010  0.0003394 0.0000
514 -30253.8092467628  -0.000011711098 0.00001689  0.00000008  0.0003428 0.0000
515 -30253.8092358130   0.000010949792 0.00005483  0.00000028  0.0003443 0.0000
516 -30253.8092253634   0.000010449527 0.00007983  0.00000041  0.0003429 0.0000
517 -30253.8092240987   0.000001264736 0.00007577  0.00000039  0.0003436 0.0000
518 -30253.8092328038  -0.000008705079 0.00003083  0.00000016  0.0003456 0.0000
519 -30253.8092435945  -0.000010790678 0.00001089  0.00000005  0.0003488 0.0000
               *** Restarting incremental Fock matrix formation ***
                                   *** Resetting DIIS ***
520 -30253.8092169311   0.000026663340 0.00011715  0.00000059  0.0003508 0.0000
521 -30253.8092172561  -0.000000324984 0.00011833  0.00000060  0.0003498 0.0000
522 -30253.8092286247  -0.000011368607 0.00007302  0.00000038  0.0003510 0.0000
523 -30253.8092501285  -0.000021503776 0.00002494  0.00000012  0.0003546 0.0000
524 -30253.8092562072  -0.000006078692 0.00000471  0.00000002  0.0003589 0.0000
525 -30253.8092413682   0.000014838977 0.00008036  0.00000040  0.0003586 0.0000
526 -30253.8092264116   0.000014956615 0.00009260  0.00000047  0.0003566 0.0000
527 -30253.8092260153   0.000000396245 0.00007261  0.00000038  0.0003582 0.0000
528 -30253.8092400665  -0.000014051206 0.00000861  0.00000005  0.0003613 0.0000
529 -30253.8092479659  -0.000007899311 0.00001767  0.00000009  0.0003650 0.0000
530 -30253.8092353265   0.000012639357 0.00006520  0.00000033  0.0003659 0.0000
531 -30253.8092275039   0.000007822549 0.00009305  0.00000048  0.0003644 0.0000
532 -30253.8092289017  -0.000001397737 0.00008023  0.00000041  0.0003652 0.0000
533 -30253.8092422403  -0.000013338580 0.00002053  0.00000011  0.0003678 0.0000
534 -30253.8092560063  -0.000013765988 0.00001819  0.00000009  0.0003714 0.0000
535 -30253.8092431971   0.000012809178 0.00005928  0.00000030  0.0003731 0.0000
536 -30253.8092309683   0.000012228760 0.00008627  0.00000044  0.0003716 0.0000
537 -30253.8092294538   0.000001514556 0.00008204  0.00000042  0.0003724 0.0000
538 -30253.8092396034  -0.000010149633 0.00003371  0.00000018  0.0003746 0.0000
539 -30253.8092522650  -0.000012661567 0.00001151  0.00000006  0.0003780 0.0000
               *** Restarting incremental Fock matrix formation ***
                                   *** Resetting DIIS ***
540 -30253.8092210237   0.000031241256 0.00012684  0.00000065  0.0003802 0.0000
541 -30253.8092214067  -0.000000382985 0.00012809  0.00000065  0.0003790 0.0000
542 -30253.8092347422  -0.000013335542 0.00007909  0.00000041  0.0003803 0.0000
543 -30253.8092599793  -0.000025237045 0.00002684  0.00000013  0.0003843 0.0000
544 -30253.8092671360  -0.000007156741 0.00000507  0.00000003  0.0003889 0.0000
545 -30253.8092497303   0.000017405735 0.00008694  0.00000044  0.0003886 0.0000
546 -30253.8092321747   0.000017555598 0.00010020  0.00000051  0.0003865 0.0000
547 -30253.8092316842   0.000000490516 0.00007871  0.00000041  0.0003882 0.0000
548 -30253.8092481433  -0.000016459126 0.00000958  0.00000006  0.0003915 0.0000
549 -30253.8092574748  -0.000009331488 0.00001915  0.00000010  0.0003955 0.0000
550 -30253.8092426561   0.000014818652 0.00007052  0.00000036  0.0003966 0.0000
551 -30253.8092334744   0.000009181742 0.00010063  0.00000051  0.0003948 0.0000
552 -30253.8092350726  -0.000001598179 0.00008691  0.00000045  0.0003958 0.0000
553 -30253.8092506610  -0.000015588419 0.00002256  0.00000013  0.0003985 0.0000
554 -30253.8092668412  -0.000016180238 0.00001957  0.00000010  0.0004025 0.0000
555 -30253.8092518675   0.000014973710 0.00006405  0.00000032  0.0004043 0.0000
556 -30253.8092375715   0.000014296049 0.00009316  0.00000048  0.0004027 0.0000
557 -30253.8092357549   0.000001816574 0.00008879  0.00000046  0.0004035 0.0000
558 -30253.8092475739  -0.000011819044 0.00003690  0.00000020  0.0004059 0.0000
559 -30253.8092624301  -0.000014856174 0.00001210  0.00000006  0.0004095 0.0000
               *** Restarting incremental Fock matrix formation ***
                                   *** Resetting DIIS ***
560 -30253.8092258363   0.000036593832 0.00013730  0.00000070  0.0004119 0.0000
561 -30253.8092262887  -0.000000452455 0.00013862  0.00000071  0.0004107 0.0000
562 -30253.8092419292  -0.000015640460 0.00008566  0.00000045  0.0004121 0.0000
563 -30253.8092715462  -0.000029616971 0.00002885  0.00000014  0.0004164 0.0000
564 -30253.8092799732  -0.000008427000 0.00000545  0.00000003  0.0004214 0.0000
565 -30253.8092595598   0.000020413376 0.00009403  0.00000048  0.0004211 0.0000
566 -30253.8092389575   0.000020602296 0.00010839  0.00000056  0.0004188 0.0000
567 -30253.8092383481   0.000000609412 0.00008531  0.00000044  0.0004206 0.0000
568 -30253.8092576192  -0.000019271163 0.00001071  0.00000007  0.0004242 0.0000
569 -30253.8092686537  -0.000011034426 0.00002075  0.00000010  0.0004285 0.0000
570 -30253.8092512844   0.000017369235 0.00007624  0.00000039  0.0004297 0.0000
571 -30253.8092405069   0.000010777487 0.00010876  0.00000056  0.0004278 0.0000
572 -30253.8092423236  -0.000001816636 0.00009415  0.00000049  0.0004288 0.0000
573 -30253.8092605244  -0.000018200801 0.00002484  0.00000014  0.0004318 0.0000
574 -30253.8092795446  -0.000019020175 0.00002101  0.00000010  0.0004361 0.0000
575 -30253.8092620572   0.000017487317 0.00006917  0.00000035  0.0004381 0.0000
576 -30253.8092453572   0.000016700003 0.00010054  0.00000052  0.0004364 0.0000
577 -30253.8092431698   0.000002187462 0.00009607  0.00000050  0.0004372 0.0000
578 -30253.8092569087  -0.000013738929 0.00004045  0.00000022  0.0004398 0.0000
579 -30253.8092743331  -0.000017424427 0.00001263  0.00000006  0.0004437 0.0000
               *** Restarting incremental Fock matrix formation ***
                                   *** Resetting DIIS ***
580 -30253.8092314958   0.000042837346 0.00014858  0.00000076  0.0004463 0.0000
581 -30253.8092320302  -0.000000534372 0.00014997  0.00000077  0.0004450 0.0000
582 -30253.8092503663  -0.000018336130 0.00009276  0.00000048  0.0004465 0.0000
583 -30253.8092851132  -0.000034746954 0.00003096  0.00000015  0.0004511 0.0000
584 -30253.8092950396  -0.000009926360 0.00000585  0.00000003  0.0004566 0.0000
585 -30253.8092711078   0.000023931832 0.00010166  0.00000051  0.0004563 0.0000
586 -30253.8092469362   0.000024171572 0.00011721  0.00000060  0.0004537 0.0000
587 -30253.8092461760   0.000000760203 0.00009247  0.00000048  0.0004557 0.0000
588 -30253.8092687229  -0.000022546908 0.00001201  0.00000007  0.0004596 0.0000
589 -30253.8092817849  -0.000013061974 0.00002247  0.00000011  0.0004643 0.0000
590 -30253.8092614385   0.000020346364 0.00008238  0.00000042  0.0004656 0.0000
591 -30253.8092487881   0.000012650442 0.00011750  0.00000060  0.0004635 0.0000
592 -30253.8092508394  -0.000002051336 0.00010197  0.00000053  0.0004646 0.0000
593 -30253.8092720649  -0.000021225453 0.00002741  0.00000015  0.0004678 0.0000
594 -30253.8092944213  -0.000022356428 0.00002251  0.00000011  0.0004724 0.0000
595 -30253.8092740237   0.000020397561 0.00007465  0.00000038  0.0004746 0.0000
596 -30253.8092545375   0.000019486211 0.00010841  0.00000056  0.0004728 0.0000
597 -30253.8092518921   0.000002645458 0.00010392  0.00000054  0.0004737 0.0000
598 -30253.8092678300  -0.000015937909 0.00004443  0.00000024  0.0004764 0.0000
599 -30253.8092882556  -0.000020425618 0.00001307  0.00000006  0.0004807 0.0000
               *** Restarting incremental Fock matrix formation ***
                                   *** Resetting DIIS ***
600 -30253.8092381520   0.000050103539 0.00016074  0.00000082  0.0004835 0.0000
601 -30253.8092387838  -0.000000631720 0.00016219  0.00000083  0.0004821 0.0000
602 -30253.8092602720  -0.000021488253 0.00010041  0.00000052  0.0004838 0.0000
603 -30253.8093010299  -0.000040757935 0.00003316  0.00000016  0.0004887 0.0000
604 -30253.8093127269  -0.000011696902 0.00000626  0.00000003  0.0004947 0.0000
605 -30253.8092846761   0.000028050737 0.00010985  0.00000056  0.0004943 0.0000
606 -30253.8092563248   0.000028351278 0.00012668  0.00000065  0.0004915 0.0000
607 -30253.8092553722   0.000000952656 0.00010022  0.00000052  0.0004937 0.0000
608 -30253.8092817329  -0.000026360707 0.00001352  0.00000008  0.0004978 0.0000
609 -30253.8092972123  -0.000015479367 0.00002433  0.00000012  0.0005029 0.0000
610 -30253.8092733909   0.000023821332 0.00008896  0.00000045  0.0005043 0.0000
611 -30253.8092585450   0.000014845948 0.00012685  0.00000065  0.0005022 0.0000
612 -30253.8092608389  -0.000002293953 0.00011041  0.00000057  0.0005033 0.0000
613 -30253.8092855570  -0.000024718091 0.00003032  0.00000017  0.0005068 0.0000
614 -30253.8093118316  -0.000026274611 0.00002406  0.00000012  0.0005118 0.0000
615 -30253.8092880721   0.000023759490 0.00008049  0.00000041  0.0005142 0.0000
616 -30253.8092653697   0.000022702399 0.00011678  0.00000060  0.0005122 0.0000
617 -30253.8092621614   0.000003208301 0.00011234  0.00000058  0.0005131 0.0000
618 -30253.8092806047  -0.000018443250 0.00004889  0.00000026  0.0005161 0.0000
619 -30253.8093045346  -0.000023929879 0.00001336  0.00000007  0.0005207 0.0000
               *** Restarting incremental Fock matrix formation ***
                                   *** Resetting DIIS ***
620 -30253.8092459812   0.000058553363 0.00017382  0.00000089  0.0005237 0.0000
621 -30253.8092467302  -0.000000748980 0.00017532  0.00000090  0.0005223 0.0000
622 -30253.8092719014  -0.000025171241 0.00010867  0.00000057  0.0005240 0.0000
623 -30253.8093196872  -0.000047785747 0.00003544  0.00000018  0.0005294 0.0000
624 -30253.8093334778  -0.000013790588 0.00000669  0.00000003  0.0005358 0.0000
625 -30253.8093006188   0.000032859007 0.00011863  0.00000060  0.0005354 0.0000
626 -30253.8092673755   0.000033243243 0.00013685  0.00000071  0.0005325 0.0000
627 -30253.8092661745   0.000001201006 0.00010861  0.00000057  0.0005348 0.0000
628 -30253.8092969681  -0.000030793562 0.00001529  0.00000009  0.0005392 0.0000
629 -30253.8093153341  -0.000018366016 0.00002633  0.00000013  0.0005447 0.0000
630 -30253.8092874637   0.000027870381 0.00009600  0.00000049  0.0005463 0.0000
631 -30253.8092700474   0.000017416314 0.00013684  0.00000071  0.0005439 0.0000
632 -30253.8092725835  -0.000002536101 0.00011952  0.00000062  0.0005452 0.0000
633 -30253.8093013213  -0.000028737813 0.00003368  0.00000019  0.0005489 0.0000
634 -30253.8093321971  -0.000030875846 0.00002563  0.00000013  0.0005543 0.0000
635 -30253.8093045700   0.000027627120 0.00008671  0.00000044  0.0005569 0.0000
636 -30253.8092781629   0.000026407077 0.00012565  0.00000065  0.0005548 0.0000
637 -30253.8092742551   0.000003907826 0.00012139  0.00000063  0.0005558 0.0000
638 -30253.8092955321  -0.000021276974 0.00005391  0.00000029  0.0005590 0.0000
639 -30253.8093235456  -0.000028013514 0.00001344  0.00000007  0.0005639 0.0000
               *** Restarting incremental Fock matrix formation ***
                                   *** Resetting DIIS ***
640 -30253.8092551911   0.000068354486 0.00018788  0.00000097  0.0005672 0.0000
641 -30253.8092560803  -0.000000889184 0.00018941  0.00000098  0.0005656 0.0000
642 -30253.8092855476  -0.000029467319 0.00011757  0.00000062  0.0005676 0.0000
643 -30253.8093415508  -0.000056003169 0.00003777  0.00000019  0.0005733 0.0000
644 -30253.8093578144  -0.000016263588 0.00000713  0.00000004  0.0005803 0.0000
645 -30253.8093193428   0.000038471557 0.00012803  0.00000065  0.0005799 0.0000
646 -30253.8092803815   0.000038961305 0.00014775  0.00000077  0.0005767 0.0000
647 -30253.8092788611   0.000001520457 0.00011768  0.00000062  0.0005792 0.0000
648 -30253.8093147930  -0.000035931975 0.00001738  0.00000010  0.0005840 0.0000
649 -30253.8093366124  -0.000021819407 0.00002847  0.00000014  0.0005899 0.0000
650 -30253.8093040354   0.000032577031 0.00010350  0.00000053  0.0005916 0.0000
651 -30253.8092836097   0.000020425698 0.00014748  0.00000076  0.0005891 0.0000
652 -30253.8092863707  -0.000002761022 0.00012935  0.00000068  0.0005904 0.0000
653 -30253.8093197144  -0.000033343706 0.00003758  0.00000021  0.0005944 0.0000
654 -30253.8093559895  -0.000036275058 0.00002719  0.00000014  0.0006002 0.0000
655 -30253.8093239349   0.000032054562 0.00009330  0.00000048  0.0006031 0.0000
656 -30253.8092932811   0.000030653853 0.00013499  0.00000070  0.0006008 0.0000
657 -30253.8092884981   0.000004782967 0.00013107  0.00000068  0.0006019 0.0000
658 -30253.8093129514  -0.000024453278 0.00005958  0.00000032  0.0006053 0.0000
659 -30253.8093457084  -0.000032757016 0.00001322  0.00000007  0.0006106 0.0000
               *** Restarting incremental Fock matrix formation ***
                                   *** Resetting DIIS ***
660 -30253.8092660268   0.000079681660 0.00020296  0.00000105  0.0006142 0.0000
661 -30253.8092670850  -0.000001058230 0.00020450  0.00000106  0.0006125 0.0000
662 -30253.8093015583  -0.000034473269 0.00012713  0.00000067  0.0006146 0.0000
663 -30253.8093671616  -0.000065603366 0.00004013  0.00000020  0.0006208 0.0000
664 -30253.8093863513  -0.000019189647 0.00000757  0.00000004  0.0006283 0.0000
665 -30253.8093413335   0.000045017754 0.00013806  0.00000071  0.0006279 0.0000
666 -30253.8092956935   0.000045640030 0.00015939  0.00000083  0.0006244 0.0000
667 -30253.8092937571   0.000001936398 0.00012750  0.00000067  0.0006272 0.0000
668 -30253.8093356318  -0.000041874726 0.00001984  0.00000012  0.0006323 0.0000
669 -30253.8093615899  -0.000025958037 0.00003076  0.00000016  0.0006387 0.0000
670 -30253.8093235537   0.000038036185 0.00011149  0.00000057  0.0006406 0.0000
671 -30253.8092996120   0.000023941648 0.00015878  0.00000082  0.0006379 0.0000
672 -30253.8093025541  -0.000002942073 0.00013993  0.00000073  0.0006393 0.0000
673 -30253.8093411481  -0.000038594011 0.00004209  0.00000024  0.0006435 0.0000
674 -30253.8093837527  -0.000042604610 0.00002869  0.00000014  0.0006498 0.0000
675 -30253.8093466574   0.000037095284 0.00010024  0.00000052  0.0006529 0.0000
676 -30253.8093111647   0.000035492718 0.00014477  0.00000075  0.0006505 0.0000
677 -30253.8093052819   0.000005882801 0.00014141  0.00000074  0.0006517 0.0000
678 -30253.8093332577  -0.000027975759 0.00006602  0.00000036  0.0006553 0.0000
679 -30253.8093715080  -0.000038250353 0.00001259  0.00000007  0.0006609 0.0000
               *** Restarting incremental Fock matrix formation ***
                                   *** Resetting DIIS ***
680 -30253.8092787771   0.000092730934 0.00021912  0.00000113  0.0006649 0.0000
681 -30253.8092800400  -0.000001262917 0.00022062  0.00000115  0.0006631 0.0000
682 -30253.8093203373  -0.000040297302 0.00013741  0.00000073  0.0006654 0.0000
683 -30253.8093971452  -0.000076807937 0.00004247  0.00000021  0.0006721 0.0000
684 -30253.8094197972  -0.000022651955 0.00000800  0.00000004  0.0006801 0.0000
685 -30253.8093671507   0.000052646519 0.00014875  0.00000076  0.0006798 0.0000
686 -30253.8093137232   0.000053427451 0.00017181  0.00000090  0.0006760 0.0000
[...]
      dx2y2   :     0.018602
      dxy     :     0.018423
      f0      :     0.002286  f :     0.010525
      f+1     :     0.001836
      f-1     :     0.001845
      f+2     :     0.001241
      f-2     :     0.001206
      f+3     :     0.001056
      f-3     :     0.001056
  2 Cls       :     5.935890  s :     5.935890
      pz      :     3.646181  p :    11.168012
      px      :     3.766112
      py      :     3.755720
      dz2     :     0.031508  d :     0.122455
      dxz     :     0.026783
      dyz     :     0.027141
      dx2y2   :     0.018601
      dxy     :     0.018422
      f0      :     0.002286  f :     0.010524
      f+1     :     0.001836
      f-1     :     0.001845
      f+2     :     0.001241
      f-2     :     0.001206
      f+3     :     0.001056
      f-3     :     0.001056
  3 Cls       :     5.936156  s :     5.936156
      pz      :     3.784374  p :    11.210951
      px      :     3.726599
      py      :     3.699978
      dz2     :     0.021744  d :     0.121473
      dxz     :     0.021286
      dyz     :     0.023802
      dx2y2   :     0.027949
      dxy     :     0.026691
      f0      :     0.001364  f :     0.010367
      f+1     :     0.001281
      f-1     :     0.001451
      f+2     :     0.001242
      f-2     :     0.001486
      f+3     :     0.001767
      f-3     :     0.001776
  4 Cls       :     5.931432  s :     5.931432
      pz      :     3.801981  p :    11.220447
      px      :     3.663945
      py      :     3.754521
      dz2     :     0.021835  d :     0.120740
      dxz     :     0.026455
      dyz     :     0.018307
      dx2y2   :     0.026304
      dxy     :     0.027839
      f0      :     0.001365  f :     0.010184
      f+1     :     0.001602
      f-1     :     0.001120
      f+2     :     0.001497
      f-2     :     0.001183
      f+3     :     0.001671
      f-3     :     0.001746
  5 Cls       :     5.936189  s :     5.936189
      pz      :     3.784153  p :    11.210992
      px      :     3.727051
      py      :     3.699789
      dz2     :     0.021741  d :     0.121483
      dxz     :     0.021272
      dyz     :     0.023824
      dx2y2   :     0.027948
      dxy     :     0.026698
      f0      :     0.001364  f :     0.010369
      f+1     :     0.001280
      f-1     :     0.001452
      f+2     :     0.001244
      f-2     :     0.001485
      f+3     :     0.001767
      f-3     :     0.001777

SPIN
  0 U s       :     0.006511  s :     0.006511
      pz      :     0.000850  p :     0.007707
      px      :     0.002878
      py      :     0.003979
      dz2     :     0.003761  d :     0.065014
      dxz     :     0.019766
      dyz     :     0.019218
      dx2y2   :     0.019218
      dxy     :     0.003051
      f0      :     0.057490  f :     1.099595
      f+1     :     0.022412
      f-1     :     0.019326
      f+2     :     0.966851
      f-2     :     0.004510
      f+3     :     0.008588
      f-3     :     0.020419
  1 Cls       :    -0.001591  s :    -0.001591
      pz      :    -0.024449  p :    -0.046998
      px      :    -0.010331
      py      :    -0.012217
      dz2     :    -0.000599  d :    -0.000178
      dxz     :     0.000144
      dyz     :     0.000175
      dx2y2   :     0.000148
      dxy     :    -0.000046
      f0      :    -0.000006  f :     0.000020
      f+1     :     0.000008
      f-1     :     0.000009
      f+2     :     0.000025
      f-2     :    -0.000009
      f+3     :    -0.000004
      f-3     :    -0.000004
  2 Cls       :    -0.001588  s :    -0.001588
      pz      :    -0.024442  p :    -0.046937
      px      :    -0.010292
      py      :    -0.012203
      dz2     :    -0.000600  d :    -0.000179
      dxz     :     0.000143
      dyz     :     0.000175
      dx2y2   :     0.000148
      dxy     :    -0.000046
      f0      :    -0.000006  f :     0.000020
      f+1     :     0.000008
      f-1     :     0.000009
      f+2     :     0.000025
      f-2     :    -0.000009
      f+3     :    -0.000004
      f-3     :    -0.000004
  3 Cls       :    -0.001040  s :    -0.001040
      pz      :    -0.006623  p :    -0.029995
      px      :    -0.009372
      py      :    -0.014001
      dz2     :    -0.000042  d :     0.000343
      dxz     :     0.000302
      dyz     :     0.000057
      dx2y2   :     0.000143
      dxy     :    -0.000116
      f0      :     0.000004  f :     0.000052
      f+1     :    -0.000002
      f-1     :    -0.000000
      f+2     :     0.000020
      f-2     :     0.000020
      f+3     :     0.000000
      f-3     :     0.000009
  4 Cls       :    -0.000728  s :    -0.000728
      pz      :     0.006311  p :    -0.020128
      px      :    -0.011499
      py      :    -0.014940
      dz2     :     0.000030  d :     0.000679
      dxz     :     0.000515
      dyz     :    -0.000009
      dx2y2   :    -0.000098
      dxy     :     0.000240
      f0      :     0.000012  f :     0.000065
      f+1     :    -0.000002
      f-1     :    -0.000001
      f+2     :     0.000040
      f-2     :    -0.000003
      f+3     :     0.000001
      f-3     :     0.000017
  5 Cls       :    -0.001041  s :    -0.001041
      pz      :    -0.006755  p :    -0.029996
      px      :    -0.009365
      py      :    -0.013876
      dz2     :    -0.000043  d :     0.000342
      dxz     :     0.000301
      dyz     :     0.000059
      dx2y2   :     0.000141
      dxy     :    -0.000115
      f0      :     0.000004  f :     0.000052
      f+1     :    -0.000002
      f-1     :    -0.000000
      f+2     :     0.000021
      f-2     :     0.000020
      f+3     :     0.000000
      f-3     :     0.000009


                     *******************************
                     * LOEWDIN POPULATION ANALYSIS *
                     *******************************

-----------------------------------------
LOEWDIN ATOMIC CHARGES AND SPIN DENSITIES
-----------------------------------------
   0 U :   -1.913028    1.151471
   1 Cl:    0.412845   -0.042381
   2 Cl:    0.412752   -0.042323
   3 Cl:    0.373607   -0.025574
   4 Cl:    0.339842   -0.015613
   5 Cl:    0.373982   -0.025579

--------------------------------------------------
LOEWDIN REDUCED ORBITAL CHARGES AND SPIN DENSITIES
--------------------------------------------------
CHARGE
  0 U s       :    12.367404  s :    12.367404
      pz      :    10.251773  p :    30.668355
      px      :    10.220145
      py      :    10.196438
      dz2     :     6.916141  d :    33.233946
      dxz     :     6.498558
      dyz     :     6.479643
      dx2y2   :     6.637131
      dxy     :     6.702474
      f0      :     2.753995  f :    17.643322
      f+1     :     2.476305
      f-1     :     2.438459
      f+2     :     3.071112
      f-2     :     2.168939
      f+3     :     2.319644
      f-3     :     2.414868
  1 Cls       :     5.550668  s :     5.550668
      pz      :     3.595484  p :    10.882747
      px      :     3.649748
      py      :     3.637515
      dz2     :     0.052853  d :     0.140505
      dxz     :     0.025332
      dyz     :     0.025353
      dx2y2   :     0.018609
      dxy     :     0.018358
      f0      :     0.004707  f :     0.013235
      f+1     :     0.001948
      f-1     :     0.001944
      f+2     :     0.001285
      f-2     :     0.001225
      f+3     :     0.001070
      f-3     :     0.001056
  2 Cls       :     5.550690  s :     5.550690
      pz      :     3.595491  p :    10.882826
      px      :     3.649880
      py      :     3.637455
      dz2     :     0.052846  d :     0.140499
      dxz     :     0.025334
      dyz     :     0.025354
      dx2y2   :     0.018609
      dxy     :     0.018357
      f0      :     0.004706  f :     0.013233
      f+1     :     0.001948
      f-1     :     0.001944
      f+2     :     0.001285
      f-2     :     0.001224
      f+3     :     0.001070
      f-3     :     0.001056
  3 Cls       :     5.554320  s :     5.554320
      pz      :     3.668942  p :    10.921523
      px      :     3.630745
      py      :     3.621837
      dz2     :     0.026849  d :     0.137672
      dxz     :     0.020877
      dyz     :     0.022750
      dx2y2   :     0.027960
      dxy     :     0.039236
      f0      :     0.001410  f :     0.012877
      f+1     :     0.001565
      f-1     :     0.002026
      f+2     :     0.001272
      f-2     :     0.001584
      f+3     :     0.003010
      f-3     :     0.002009
  4 Cls       :     5.563647  s :     5.563647
      pz      :     3.692882  p :    10.947619
      px      :     3.621848
      py      :     3.632889
      dz2     :     0.026755  d :     0.136361
      dxz     :     0.025777
      dyz     :     0.018157
      dx2y2   :     0.039866
      dxy     :     0.025807
      f0      :     0.001423  f :     0.012531
      f+1     :     0.002392
      f-1     :     0.001127
      f+2     :     0.001636
      f-2     :     0.001192
      f+3     :     0.002877
      f-3     :     0.001882
  5 Cls       :     5.554208  s :     5.554208
      pz      :     3.668617  p :    10.921246
      px      :     3.630824
      py      :     3.621805
      dz2     :     0.026846  d :     0.137682
      dxz     :     0.020860
      dyz     :     0.022766
      dx2y2   :     0.027999
      dxy     :     0.039211
      f0      :     0.001410  f :     0.012881
      f+1     :     0.001563
      f-1     :     0.002028
      f+2     :     0.001274
      f-2     :     0.001583
      f+3     :     0.003015
      f-3     :     0.002008

SPIN
  0 U s       :     0.002316  s :     0.002316
      pz      :     0.000075  p :     0.007222
      px      :     0.003087
      py      :     0.004060
      dz2     :     0.001349  d :     0.052944
      dxz     :     0.018374
      dyz     :     0.016439
      dx2y2   :     0.015370
      dxy     :     0.001412
      f0      :     0.054571  f :     1.088989
      f+1     :     0.021295
      f-1     :     0.018208
      f+2     :     0.963747
      f-2     :     0.004374
      f+3     :     0.007998
      f-3     :     0.018797
  1 Cls       :    -0.000751  s :    -0.000751
      pz      :    -0.021508  p :    -0.041203
      px      :    -0.008860
      py      :    -0.010834
      dz2     :    -0.001016  d :    -0.000468
      dxz     :     0.000169
      dyz     :     0.000202
      dx2y2   :     0.000221
      dxy     :    -0.000044
      f0      :    -0.000042  f :     0.000041
      f+1     :     0.000021
      f-1     :     0.000024
      f+2     :     0.000053
      f-2     :    -0.000008
      f+3     :    -0.000004
      f-3     :    -0.000004
  2 Cls       :    -0.000750  s :    -0.000750
      pz      :    -0.021503  p :    -0.041145
      px      :    -0.008815
      py      :    -0.010828
      dz2     :    -0.001017  d :    -0.000469
      dxz     :     0.000170
      dyz     :     0.000201
      dx2y2   :     0.000220
      dxy     :    -0.000044
      f0      :    -0.000042  f :     0.000041
      f+1     :     0.000021
      f-1     :     0.000024
      f+2     :     0.000053
      f-2     :    -0.000008
      f+3     :    -0.000004
      f-3     :    -0.000004
  3 Cls       :    -0.000545  s :    -0.000545
      pz      :    -0.005324  p :    -0.025632
      px      :    -0.007969
      py      :    -0.012338
      dz2     :    -0.000098  d :     0.000492
      dxz     :     0.000527
      dyz     :     0.000138
      dx2y2   :     0.000099
      dxy     :    -0.000174
      f0      :     0.000016  f :     0.000111
      f+1     :    -0.000002
      f-1     :    -0.000006
      f+2     :     0.000036
      f-2     :     0.000054
      f+3     :    -0.000011
      f-3     :     0.000024
  4 Cls       :    -0.000432  s :    -0.000432
      pz      :     0.006910  p :    -0.016360
      px      :    -0.009291
      py      :    -0.013979
      dz2     :    -0.000021  d :     0.001019
      dxz     :     0.001173
      dyz     :    -0.000010
      dx2y2   :    -0.000152
      dxy     :     0.000029
      f0      :     0.000048  f :     0.000160
      f+1     :    -0.000004
      f-1     :    -0.000002
      f+2     :     0.000111
      f-2     :    -0.000002
      f+3     :     0.000006
      f-3     :     0.000003
  5 Cls       :    -0.000545  s :    -0.000545
      pz      :    -0.005452  p :    -0.025636
      px      :    -0.007968
      py      :    -0.012216
      dz2     :    -0.000099  d :     0.000491
      dxz     :     0.000522
      dyz     :     0.000139
      dx2y2   :     0.000101
      dxy     :    -0.000172
      f0      :     0.000016  f :     0.000111
      f+1     :    -0.000002
      f-1     :    -0.000006
      f+2     :     0.000037
      f-2     :     0.000053
      f+3     :    -0.000011
      f-3     :     0.000024


                      *****************************
                      * MAYER POPULATION ANALYSIS *
                      *****************************

  NA   - Mulliken gross atomic population
  ZA   - Total nuclear charge
  QA   - Mulliken gross atomic charge
  VA   - Mayer's total valence
  BVA  - Mayer's bonded valence
  FA   - Mayer's free valence

  ATOM       NA         ZA         QA         VA         BVA        FA
  0 U     90.6855    92.0000     1.3145     7.8663     5.6083     2.2579
  1 Cl    17.2368    17.0000    -0.2368     1.8139     1.2097     0.6042
  2 Cl    17.2369    17.0000    -0.2369     1.8138     1.2096     0.6042
  3 Cl    17.2789    17.0000    -0.2789     1.7473     1.1495     0.5978
  4 Cl    17.2828    17.0000    -0.2828     1.7332     1.1377     0.5956
  5 Cl    17.2790    17.0000    -0.2790     1.7473     1.1495     0.5978

  Mayer bond orders larger than 0.1
B(  0-U ,  1-Cl) :   1.1641 B(  0-U ,  2-Cl) :   1.1640 B(  0-U ,  3-Cl) :   1.0935 
B(  0-U ,  4-Cl) :   1.0934 B(  0-U ,  5-Cl) :   1.0932 


----------------------------------
MP2 DERIVATIVE INTEGRAL GENERATION
----------------------------------


Input Wavefunction Amplitudes       ... /home/nikolayandreadi_2125/_scratch/MP2/UCl5.mp2tbb.tmp.proc19
Input Correlated Electron Density   ... /home/nikolayandreadi_2125/_scratch/MP2/UCl5.pmp2re
Input Energy Weighted Density       ... /home/nikolayandreadi_2125/_scratch/MP2/UCl5.wmp2.tmp
Input SCF Electron Density          ... /home/nikolayandreadi_2125/_scratch/MP2/UCl5.scfp.tmp

One-Electron Terms    ...
                        ... One-Electron Terms done
Prescreening matrices              ... done

Batch handling in the gradient evaluation:
Memory available                      ... 31500.0 MB
Memory per occupied orbital in Q2     ...   53.3 MB
Memory per occupied orbital in Q3     ...    0.1 MB
Total memory requirement per |i>      ...   53.4 MB
Max. Number of orbitals possible      ...    589
Number of orbitals treated per batch  ...     59
Number of batches to be done          ...      1
Batch   0: i=   59 ...   117

---------------------------------------
MP2 TOTAL ENERGY:   -30255.647792357 Eh
---------------------------------------

-----------------------------------
NORM OF THE MP2 GRADIENT:  0.000041
-----------------------------------

-------------------------   --------------------
FINAL SINGLE POINT ENERGY    -30255.647792356671
-------------------------   --------------------

                                *** OPTIMIZATION RUN DONE ***

                            ***************************************
                            *     ORCA property calculations      *
                            ***************************************

                                    ---------------------
                                    Active property flags
                                    ---------------------
   (+) Dipole Moment


------------------------------------------------------------------------------
                       ORCA ELECTRIC PROPERTIES CALCULATION
------------------------------------------------------------------------------

Dipole Moment Calculation                       ... on
Quadrupole Moment Calculation                   ... off
Polarizability Calculation                      ... off
GBWName                                         ... /home/nikolayandreadi_2125/_scratch/MP2/UCl5.gbw
Electron density file                           ... /home/nikolayandreadi_2125/_scratch/MP2/UCl5.scfp.tmp
The origin for moment calculation is the CENTER OF MASS  = ( 0.033346, -0.000622 -0.000054)

-------------
DIPOLE MOMENT
-------------
                                X             Y             Z
Electronic contribution:      0.84129      -0.01677      -0.00131
Nuclear contribution   :     -0.77513       0.01445       0.00124
                        -----------------------------------------
Total Dipole Moment    :      0.06617      -0.00232      -0.00007
                        -----------------------------------------
Magnitude (a.u.)       :      0.06621
Magnitude (Debye)      :      0.16828


                         *** MP2 UNRELAXED DENSITY ***

------------------------------------------------------------------------------
                       ORCA ELECTRIC PROPERTIES CALCULATION
------------------------------------------------------------------------------

Dipole Moment Calculation                       ... on
Quadrupole Moment Calculation                   ... off
Polarizability Calculation                      ... off
GBWName                                         ... /home/nikolayandreadi_2125/_scratch/MP2/UCl5.gbw
Electron density file                           ... /home/nikolayandreadi_2125/_scratch/MP2/UCl5.pmp2ur
The origin for moment calculation is the CENTER OF MASS  = ( 0.033346, -0.000622 -0.000054)

-------------
DIPOLE MOMENT
-------------
                                X             Y             Z
Electronic contribution:      0.83219      -0.01669      -0.00128
Nuclear contribution   :     -0.77513       0.01445       0.00124
                        -----------------------------------------
Total Dipole Moment    :      0.05706      -0.00224      -0.00004
                        -----------------------------------------
Magnitude (a.u.)       :      0.05710
Magnitude (Debye)      :      0.14515


                           *** MP2 RELAXED DENSITY ***

------------------------------------------------------------------------------
                       ORCA ELECTRIC PROPERTIES CALCULATION
------------------------------------------------------------------------------

Dipole Moment Calculation                       ... on
Quadrupole Moment Calculation                   ... off
Polarizability Calculation                      ... off
GBWName                                         ... /home/nikolayandreadi_2125/_scratch/MP2/UCl5.gbw
Electron density file                           ... /home/nikolayandreadi_2125/_scratch/MP2/UCl5.pmp2re
The origin for moment calculation is the CENTER OF MASS  = ( 0.033346, -0.000622 -0.000054)

-------------
DIPOLE MOMENT
-------------
                                X             Y             Z
Electronic contribution:      0.83390      -0.01685      -0.00131
Nuclear contribution   :     -0.77513       0.01445       0.00124
                        -----------------------------------------
Total Dipole Moment    :      0.05878      -0.00239      -0.00007
                        -----------------------------------------
Magnitude (a.u.)       :      0.05883
Magnitude (Debye)      :      0.14952


Timings for individual modules:

Sum of individual times         ...    15072.058 sec (= 251.201 min)
GTO integral calculation        ...       25.114 sec (=   0.419 min)   0.2 %
Relativistic integrals          ...       13.503 sec (=   0.225 min)   0.1 %
SCF iterations                  ...     5813.425 sec (=  96.890 min)  38.6 %
MP2 module                      ...     9211.660 sec (= 153.528 min)  61.1 %
Geometry relaxation             ...        8.356 sec (=   0.139 min)   0.1 %
                             ****ORCA TERMINATED NORMALLY****
TOTAL RUN TIME: 0 days 4 hours 11 minutes 17 seconds 114 msec
