
                                 *****************
                                 * O   R   C   A *
                                 *****************

           --- An Ab Initio, DFT and Semiempirical electronic structure package ---

                  #######################################################
                  #                        -***-                        #
                  #  Department of molecular theory and spectroscopy    #
                  #              Directorship: Frank Neese              #
                  # Max Planck Institute for Chemical Energy Conversion #
                  #                  D-45470 Muelheim/Ruhr              #
                  #                       Germany                       #
                  #                                                     #
                  #                  All rights reserved                #
                  #                        -***-                        #
                  #######################################################


                         Program Version 4.0.1.2 - RELEASE -


 With contributions from (in alphabetic order):
   Daniel Aravena         : Magnetic Properties
   Michael Atanasov       : Ab Initio Ligand Field Theory
   Ute Becker             : Parallelization
   Martin Brehm           : Molecular dynamics
   Dmytro Bykov           : SCF Hessian
   Vijay G. Chilkuri      : MRCI spin determinant printing
   Dipayan Datta          : RHF DLPNO-CCSD density
   Achintya Kumar Dutta   : EOM-CC, STEOM-CC
   Dmitry Ganyushin       : Spin-Orbit,Spin-Spin,Magnetic field MRCI
   Yang Guo               : DLPNO-NEVPT2, CIM, IAO-localization
   Andreas Hansen         : Spin unrestricted coupled pair/coupled cluster methods
   Lee Huntington         : MR-EOM, pCC
   Robert Izsak           : Overlap fitted RIJCOSX, COSX-SCS-MP3, EOM
   Christian Kollmar      : KDIIS, OOCD, Brueckner-CCSD(T), CCSD density
   Simone Kossmann        : Meta GGA functionals, TD-DFT gradient, OOMP2, MP2 Hessian
   Martin Krupicka        : AUTO-CI
   Dagmar Lenk            : GEPOL surface
   Dimitrios Liakos       : Extrapolation schemes; parallel MDCI
   Dimitrios Manganas     : ROCIS; embedding schemes
   Dimitrios Pantazis     : SARC Basis sets
   Taras Petrenko         : DFT Hessian,TD-DFT gradient, ASA, ECA, R-Raman, ABS, FL, XAS/XES, NRVS
   Peter Pinski           : DLPNO-MP2
   Christoph Reimann      : Effective Core Potentials
   Marius Retegan         : Local ZFS, SOC
   Christoph Riplinger    : Optimizer, TS searches, QM/MM, DLPNO-CCSD(T), (RO)-DLPNO pert. Triples
   Tobias Risthaus        : Range-separated hybrids, TD-DFT gradient, RPA, STAB
   Michael Roemelt        : Restricted open shell CIS
   Masaaki Saitow         : Open-shell DLPNO
   Barbara Sandhoefer     : DKH picture change effects
   Kantharuban Sivalingam : CASSCF convergence, NEVPT2, FIC-MRCI
   Georgi Stoychev        : AutoAux
   Boris Wezisla          : Elementary symmetry handling
   Frank Wennmohs         : Technical directorship


 We gratefully acknowledge several colleagues who have allowed us to
 interface, adapt or use parts of their codes:
   Stefan Grimme, W. Hujo, H. Kruse,             : VdW corrections, initial TS optimization,
                  C. Bannwarth                     DFT functionals, gCP, sTDA/sTD-DF
   Ed Valeev                                     : LibInt (2-el integral package), F12 methods
   Garnet Chan, S. Sharma, J. Yang, R. Olivares  : DMRG
   Ulf Ekstrom                                   : XCFun DFT Library
   Mihaly Kallay                                 : mrcc  (arbitrary order and MRCC methods)
   Andreas Klamt, Michael Diedenhofen            : otool_cosmo (COSMO solvation model)
   Jiri Pittner, Ondrej Demel                    : Mk-CCSD
   Frank Weinhold                                : gennbo (NPA and NBO analysis)
   Christopher J. Cramer and Donald G. Truhlar   : smd solvation model


 Your calculation uses the libint2 library for the computation of 2-el integrals
 For citations please refer to: http://libint.valeyev.net

 This ORCA versions uses:
   CBLAS   interface :  Fast vector & matrix operations
   LAPACKE interface :  Fast linear algebra routines
   SCALAPACK package :  Parallel linear algebra routines


Your calculation utilizes the basis: DKH-def2-TZVP
   Exponents from def2-TZVP [F. Weigend and R. Ahlrichs, Phys. Chem. Chem. Phys. 7, 3297 (2005)],
   recontracted for DKH2 by D. A. Pantazis.

Your calculation utilizes the auxiliary basis: SARC/J 
   decontracted def2/J up to Kr:
   F. Weigend, Phys. Chem. Chem. Phys. 8, 1057 (2006)
   and SARC auxiliary basis sets beyond Kr:
   D. A. Pantazis and F. Neese, J. Chem. Theory Comput. 5, 2229 (2009).
   D. A. Pantazis, X. Y. Chen, C. R. Landis and F. Neese, J. Chem. Theory Comput. 4, 908 (2008).
   D. A. Pantazis and F. Neese, Theor. Chem. Acc. 131, 1292 (2012).
   D. A. Pantazis and F. Neese, J. Chem. Theory Comput. 7, 677 (2011).

================================================================================
                                        WARNINGS
                       Please study these warnings very carefully!
================================================================================

Warning: TCutStore was < 0. Adjusted to Thresh (uncritical)

WARNING: In scalar relativistic gradient/hessian runs we need the one-center approximation
  ===> : %rel OneCenter is turned on

WARNING: The frozen-core approximation for MP2-gradient calculations is turned on by default.

WARNING: Geometry Optimization
  ===> : Switching off AutoStart
         For restart on a previous wavefunction, please use MOREAD

WARNING: Post HF methods need fully converged wavefunctions
  ===> : Setting SCFConvForced true
         You can overwrite this default with %scf ConvForced false 


INFO   : the flag for use of LIBINT has been found!

================================================================================
                                       INPUT FILE
================================================================================
NAME = /home/nikolayandreadi_2125/_scratch/MP2/UF4.inp
|  1> !Opt MP2 DKH-def2-TZVP DKH SARC/J SlowConv
|  2> 
|  3> %pal
|  4> nproc 20
|  5> end
|  6> 
|  7> %maxcore 31500
|  8> 
|  9> %basis
| 10> newgto U "SARC-DKH-TZVP" end
| 11> end
| 12> 
| 13> %scf
| 14> MaxIter 5000
| 15> Guess HCore
| 16> end
| 17> 
| 18> %method
| 19> Z_MaxIter 5000
| 20> end
| 21> 
| 22> * xyz 0 1
| 23>   U     -0.018855    0.002609   -0.001653
| 24>   F     -0.676817   -0.987791    1.679898
| 25>   F     -0.676482   -0.991821   -1.681219
| 26>   F     -0.637852    1.950358    0.002808
| 27>   F      2.010006    0.026645    0.000165
| 28> **                         ****END OF INPUT****
================================================================================

                       *****************************
                       * Geometry Optimization Run *
                       *****************************

Geometry optimization settings:
Update method            Update   .... BFGS
Choice of coordinates    CoordSys .... Redundant Internals
Initial Hessian          InHess   .... Almoef's Model

Convergence Tolerances:
Energy Change            TolE     ....  5.0000e-06 Eh
Max. Gradient            TolMAXG  ....  3.0000e-04 Eh/bohr
RMS Gradient             TolRMSG  ....  1.0000e-04 Eh/bohr
Max. Displacement        TolMAXD  ....  4.0000e-03 bohr
RMS Displacement         TolRMSD  ....  2.0000e-03 bohr

------------------------------------------------------------------------------
                        ORCA OPTIMIZATION COORDINATE SETUP
------------------------------------------------------------------------------

The optimization will be done in new redundant internal coordinates
Making redundant internal coordinates   ...  (new redundants) done
Evaluating the initial hessian          ...  (Almloef) done
Evaluating the coordinates              ...  done
Calculating the B-matrix                .... done
Calculating the G-matrix                .... done
Diagonalizing the G-matrix              .... done
The first mode is                       ....    1
The number of degrees of freedom        ....    9

    -----------------------------------------------------------------
                    Redundant Internal Coordinates


    -----------------------------------------------------------------
         Definition                    Initial Value    Approx d2E/dq
    -----------------------------------------------------------------
      1. B(F   1,U   0)                  2.0595         0.149404   
      2. B(F   2,U   0)                  2.0597         0.149286   
      3. B(F   3,U   0)                  2.0437         0.158288   
      4. B(F   4,U   0)                  2.0290         0.167098   
      5. A(F   1,U   0,F   3)          111.0859         0.300230   
      6. A(F   2,U   0,F   3)          111.4202         0.300193   
      7. A(F   1,U   0,F   4)          108.9307         0.302836   
      8. A(F   2,U   0,F   4)          109.0088         0.302797   
      9. A(F   3,U   0,F   4)          106.9514         0.305650   
     10. A(F   1,U   0,F   2)          109.3673         0.297450   
    -----------------------------------------------------------------

Number of atoms                         .... 5
Number of degrees of freedom            .... 10

         *************************************************************
         *                GEOMETRY OPTIMIZATION CYCLE   1            *
         *************************************************************
---------------------------------
CARTESIAN COORDINATES (ANGSTROEM)
---------------------------------
  U     -0.018855    0.002609   -0.001653
  F     -0.676817   -0.987791    1.679898
  F     -0.676482   -0.991821   -1.681219
  F     -0.637852    1.950358    0.002808
  F      2.010006    0.026645    0.000165

----------------------------
CARTESIAN COORDINATES (A.U.)
----------------------------
  NO LB      ZA    FRAG     MASS         X           Y           Z
   0 U    92.0000    0   238.029   -0.035631    0.004930   -0.003124
   1 F     9.0000    0    18.998   -1.278999   -1.866654    3.174547
   2 F     9.0000    0    18.998   -1.278366   -1.874270   -3.177043
   3 F     9.0000    0    18.998   -1.205366    3.685642    0.005306
   4 F     9.0000    0    18.998    3.798361    0.050352    0.000312

--------------------------------
INTERNAL COORDINATES (ANGSTROEM)
--------------------------------
 U      0   0   0     0.000000000000     0.00000000     0.00000000
 F      1   0   0     2.059470786160     0.00000000     0.00000000
 F      1   2   0     2.059685957709   109.36730726     0.00000000
 F      1   2   3     2.043747380067   111.08588336   123.39651167
 F      1   2   3     2.029004187216   108.93067066   240.95136652

---------------------------
INTERNAL COORDINATES (A.U.)
---------------------------
 U      0   0   0     0.000000000000     0.00000000     0.00000000
 F      1   0   0     3.891835766653     0.00000000     0.00000000
 F      1   2   0     3.892242381954   109.36730726     0.00000000
 F      1   2   3     3.862122835246   111.08588336   123.39651167
 F      1   2   3     3.834262238418   108.93067066   240.95136652

---------------------
BASIS SET INFORMATION
---------------------
There are 2 groups of distinct atoms

 Group   1 Type U   : 29s20p16d12f contracted to 21s13p10d7f pattern {911111111111111111111/8111111111111/7111111111/6111111}
 Group   2 Type F   : 11s6p2d1f contracted to 6s3p2d1f pattern {611111/411/11/1}

Atom   0U    basis set group =>   1
Atom   1F    basis set group =>   2
Atom   2F    basis set group =>   2
Atom   3F    basis set group =>   2
Atom   4F    basis set group =>   2

INFORMATION: There is an auxiliary basis set but the global RI flag is NOT set

-------------------------------
AUXILIARY BASIS SET INFORMATION
-------------------------------
There are 2 groups of distinct atoms

 Group   1 Type U   : 33s10p8d6f4g2h1i contracted to 33s10p8d6f4g2h1i pattern {111111111111111111111111111111111/1111111111/11111111/111111/1111/11/1}
 Group   2 Type F   : 12s5p4d2f1g contracted to 12s5p4d2f1g pattern {111111111111/11111/1111/11/1}

Atom   0U    basis set group =>   1
Atom   1F    basis set group =>   2
Atom   2F    basis set group =>   2
Atom   3F    basis set group =>   2
Atom   4F    basis set group =>   2


           ************************************************************
           *        Program running with 20 parallel MPI-processes    *
           *              working on a common directory               *
           ************************************************************
------------------------------------------------------------------------------
                           ORCA GTO INTEGRAL CALCULATION
------------------------------------------------------------------------------

                         BASIS SET STATISTICS AND STARTUP INFO

 # of primitive gaussian shells          ...  157
 # of primitive gaussian functions       ...  437
 # of contracted shells                  ...   99
 # of contracted basis functions         ...  287
 Highest angular momentum                ...    3
 Maximum contraction depth               ...    9
 Integral package used                   ... LIBINT
 Integral threshhold            Thresh   ...  2.500e-11
 Primitive cut-off              TCut     ...  2.500e-12


------------------------------ INTEGRAL EVALUATION ----------------------------


 * One electron integrals 
 Pre-screening matrix                    ... done
 Shell pair data                         ... done (   0.001 sec)

------------------------------------------------------------------------------
                          ORCA RELATIVISTIC HAMILTONIAN
------------------------------------------------------------------------------

Relativistic Method            ... DKH
Order of DKH treatment         ...   2
Treatment of potential         ... V(e,N)
Eps parameter for DKH          ...   0.00000000010000
Nucleus model                  ... Point Nucleus
Speed of light used            ... 137.03598950000000


            ************************************************
            *        DOUGLAS-KROLL-HESS HAMILTONIAN        *
            *   Programmed by FN according to literature   *
            *        procedures. Special thanks to         *
            *       B.A. Hess, M. Reiher and A. Wolf       *
            *     University Erlangen-Nuernberg/Bonn       *
            ************************************************

Uncontracting the basis (first version)        ... done
Number of contracted basis functions           ...  287
Number of uncontracted basis functions         ...  437
Initializing the DKH file                      ... done
One center approximation for DKH is active
Finding unique atoms                      ... 2 atom types
 ATOMIC NUMBER  92
          ... doing integrals          ... Computing the DKH transformation
          ... Transforming V and pVp to p**2 space
          ... First transformation of V and pVp
          ... Second transformation of Veff
          ... Adding kinetic energy
          ... Back transformation of Veff to r-space
          ... Recontracting the H-matrix
          ... Computing the DKH correction to the H-matrix
          ... adding submatrics to 1 actual atoms
 ATOMIC NUMBER   9
          ... doing integrals          ... Computing the DKH transformation
          ... Transforming V and pVp to p**2 space
          ... First transformation of V and pVp
          ... Second transformation of Veff
          ... Adding kinetic energy
          ... Back transformation of Veff to r-space
          ... Recontracting the H-matrix
          ... Computing the DKH correction to the H-matrix
          ... adding submatrics to 4 actual atoms
Storing DKH matrices                           ... done
Getting S**(-1/2)                              ... done
Reading the original H-matrix                  ... done
Adding DKH correction to the H-matrix          ... done
Storing the new modified H-matrix              ... done


           ************************************************************
           *        Program running with 20 parallel MPI-processes    *
           *              working on a common directory               *
           ************************************************************
-------------------------------------------------------------------------------
                                 ORCA SCF
-------------------------------------------------------------------------------

------------
SCF SETTINGS
------------
Hamiltonian:
 Ab initio Hamiltonian  Method          .... Hartree-Fock(GTOs)

Relativistic Settings:
 Scalar relativistic method             .... Douglas-Kroll-Hess
 Order of DKH procedure    Order        ....    2
 Mode of DKH-treatment                  .... V=V(e,N)
 Speed of light used       Velit        ....       137.035989
 Cutoff-constant           Eps          ....            1e-10 


General Settings:
 Integral files         IntName         .... /home/nikolayandreadi_2125/_scratch/MP2/UF4
 Hartree-Fock type      HFTyp           .... RHF
 Total Charge           Charge          ....    0
 Multiplicity           Mult            ....    1
 Number of Electrons    NEL             ....  128
 Basis Dimension        Dim             ....  287
 Nuclear Repulsion      ENuc            ....    932.7419695506 Eh

Convergence Acceleration:
 DIIS                   CNVDIIS         .... on
   Start iteration      DIISMaxIt       ....     0
   Startup error        DIISStart       ....  0.200000
   # of expansion vecs  DIISMaxEq       ....     5
   Bias factor          DIISBfac        ....   1.050
   Max. coefficient     DIISMaxC        ....  10.000
 Newton-Raphson         CNVNR           .... off
 SOSCF                  CNVSOSCF        .... off
 Level Shifting         CNVShift        .... on
   Level shift para.    LevelShift      ....    0.2500
   Turn off err/grad.   ShiftErr        ....    0.0000
 Zerner damping         CNVZerner       .... off
 Static damping         CNVDamp         .... on
   Fraction old density DampFac         ....    0.8500
   Max. Damping (<1)    DampMax         ....    0.9800
   Min. Damping (>=0)   DampMin         ....    0.0000
   Turn off err/grad.   DampErr         ....    0.0300
 Fernandez-Rico         CNVRico         .... off

SCF Procedure:
 Maximum # iterations   MaxIter         ....  5000
 SCF integral mode      SCFMode         .... Direct
   Integral package                     .... LIBINT
 Reset frequeny         DirectResetFreq ....    20
 Integral Threshold     Thresh          ....  2.500e-11 Eh
 Primitive CutOff       TCut            ....  2.500e-12 Eh

Convergence Tolerance:
 Convergence Check Mode ConvCheckMode   .... Total+1el-Energy
 Convergence forced     ConvForced      .... 1
 Energy Change          TolE            ....  1.000e-08 Eh
 1-El. energy change                    ....  1.000e-05 Eh
 DIIS Error             TolErr          ....  5.000e-07


Diagonalization of the overlap matrix:
Smallest eigenvalue                        ... 4.406e-04
Time for diagonalization                   ...    0.019 sec
Threshold for overlap eigenvalues          ... 1.000e-08
Number of eigenvalues below threshold      ... 0
Time for construction of square roots      ...    0.013 sec
Total time needed                          ...    0.032 sec

--------------------
INITIAL GUESS: HCORE
--------------------
                      -----------------
                      INTIAL GUESS DONE 
                      -----------------
--------------
SCF ITERATIONS
--------------
ITER       Energy         Delta-E        Max-DP      RMS-DP      [F,P]     Damp
               ***  Starting incremental Fock matrix formation  ***
  0 -22731.5434139663   0.00000000000023.34733160  0.24090377 73.6443286 0.8500
  1 -24288.3783371071-1556.83492314080619.26543804  0.20236581 60.3132838 0.8500
                               ***Turning on DIIS***
  2 -25244.1272846745-955.74894756740516.34099850  0.16333868 49.5233473 0.8500
  3 -27595.6341122569-2351.50682758235810.56175483  0.12231669 40.7080374 0.8500
  4 -27478.8240574244 116.81005483249811.91505570  0.10609851 34.1508901 0.8500
  5 -27610.9379382171-132.11388079273110.14851638  0.09030384 28.8353253 0.8500
  6 -27715.2175202335-104.279582016374 8.63982345  0.07681104 24.4144288 0.8500
  7 -27623.9957212639  91.221798969600 7.56817649  0.06585803 20.6894272 0.8500
  8 -27861.2050857510-237.209364487077 6.25096687  0.05555202 17.4990636 0.8500
  9 -27945.9004247330 -84.695338981979 5.27699741  0.04715247 14.8293916 0.8500
 10 -28000.1982419749 -54.297817241943 4.48640560  0.04008315 12.5786324 0.8500
 11 -28042.8861303264 -42.687888351455 3.81969415  0.03408276 10.6723723 0.8500
 12 -28079.0303050684 -36.144174742065 3.25205863  0.02898005  9.0549558 0.8500
 13 -28119.8164111275 -40.786106059044 2.75652766  0.02461816  7.6817020 0.8500
 14 -28153.4596832731 -33.643272145597 2.33902084  0.02091802  6.5175542 0.8500
 15 -28180.5145141371 -27.054830864014 1.98765784  0.01777974  5.5300348 0.8500
 16 -28203.1972221463 -22.682708009237 1.68985176  0.01511390  4.6918954 0.8500
 17 -28222.8930153156 -19.695793169278 1.43629975  0.01284726  3.9804378 0.8500
 18 -28240.3104021042 -17.417386788638 1.22012730  0.01091947  3.3765715 0.8500
 19 -28255.4166245145 -15.106222410297 1.03634284  0.00928085  2.8641232 0.8500
               *** Restarting incremental Fock matrix formation ***
                                   *** Resetting DIIS ***
 20 -28197.4338514806  57.982773033971 0.97788769  0.00811561  2.4292997 0.8500
 21 -28251.6754993323 -54.241647851719 0.76633915  0.00673802  2.0062914 0.8500
 22 -28280.1258232548 -28.450323922520 0.61828964  0.00566770  1.6767857 0.8500
 23 -28293.1335119378 -13.007688683047 0.51722456  0.00480562  1.4130145 0.8500
 24 -28301.0031122875  -7.869600349692 0.43941568  0.00408519  1.1960070 0.8500
 25 -28304.9601853817  -3.957073094163 0.37777131  0.00348013  1.0144912 0.8500
 26 -28309.9162474293  -4.956062047633 0.32278753  0.00296242  0.8605426 0.8500
 27 -28315.5827849681  -5.666537538738 0.27385352  0.00251870  0.7297499 0.8500
 28 -28320.5205308914  -4.937745923311 0.23226154  0.00214147  0.6188691 0.8500
 29 -28324.5025087222  -3.981977830837 0.19737012  0.00182156  0.5248891 0.8500
 30 -28327.7236851684  -3.221176446194 0.16798472  0.00155004  0.4451983 0.8500
 31 -28330.4876236410  -2.763938472635 0.14295697  0.00131910  0.3775982 0.8500
 32 -28332.9200795840  -2.432455942933 0.12155900  0.00112250  0.3202560 0.8500
 33 -28335.0322898299  -2.112210245952 0.10332222  0.00095523  0.2716245 0.8500
 34 -28336.8377459918  -1.805456161859 0.08782835  0.00081300  0.2303837 0.8500
 35 -28338.3732263787  -1.535480386952 0.07467400  0.00069207  0.1954091 0.8500
 36 -28339.6841597790  -1.310933400233 0.06349486  0.00058923  0.1657466 0.8500
 37 -28340.8079006892  -1.123740910243 0.05398641  0.00050176  0.1405887 0.8500
 38 -28341.7714118983  -0.963511209109 0.04589897  0.00042735  0.1192514 0.8500
 39 -28342.5960867487  -0.824674850344 0.03902277  0.00036405  0.1011547 0.8500
               *** Restarting incremental Fock matrix formation ***
                                   *** Resetting DIIS ***
 40 -28341.6193672827   0.976719466013 0.03563697  0.00031160  0.0858061 0.8500
 41 -28343.2487116930  -1.629344410358 0.02854565  0.00026149  0.0710130 0.8500
 42 -28344.3129139576  -1.064202264530 0.02330245  0.00022153  0.0593889 0.8500
 43 -28344.8462744427  -0.533360485158 0.01965803  0.00018921  0.0501263 0.8500
 44 -28345.2025886476  -0.356314204932 0.01679353  0.00016212  0.0425000 0.8500
 45 -28345.4235803806  -0.220991732993 0.01448094  0.00013923  0.0360957 0.8500
 46 -28345.6882724365  -0.264692055833 0.01238109  0.00011955  0.0306315 0.8500
 47 -28345.9587825700  -0.270510133560 0.07013612  0.00068429  0.0259851 0.0000
 48 -28347.4409528959  -1.482170325846 0.00191435  0.00004005  0.0036693 0.0000
 49 -28347.4181369621   0.022815933778 0.00182833  0.00003829  0.0028363 0.0000
 50 -28347.4145305990   0.003606363105 0.00263419  0.00005346  0.0020308 0.0000
 51 -28347.4340351853  -0.019504586307 0.00120181  0.00002430  0.0008823 0.0000
 52 -28347.4288759410   0.005159244269 0.00048634  0.00001168  0.0003954 0.0000
 53 -28347.4320713564  -0.003195415393 0.00021723  0.00000722  0.0004032 0.0000
 54 -28347.4318269951   0.000244361272 0.00018693  0.00000516  0.0004096 0.0000
 55 -28347.4315362156   0.000290779575 0.00014820  0.00000389  0.0004153 0.0000
 56 -28347.4313579030   0.000178312548 0.00010343  0.00000270  0.0004209 0.0000
 57 -28347.4313163268   0.000041576233 0.00004981  0.00000133  0.0004263 0.0000
 58 -28347.4312995523   0.000016774524 0.00000564  0.00000015  0.0004313 0.0000
 59 -28347.4314577998  -0.000158247505 0.00004290  0.00000110  0.0004350 0.0000
               *** Restarting incremental Fock matrix formation ***
                                   *** Resetting DIIS ***
 60 -28347.4315568201  -0.000099020301 0.00014044  0.00000355  0.0004344 0.0000
 61 -28347.4315571620  -0.000000341926 0.00014310  0.00000361  0.0004327 0.0000
 62 -28347.4315692148  -0.000012052784 0.00012993  0.00000328  0.0004333 0.0000
 63 -28347.4316161103  -0.000046895555 0.00008734  0.00000223  0.0004357 0.0000
 64 -28347.4317223556  -0.000106245243 0.00000847  0.00000028  0.0004399 0.0000
 65 -28347.4317610758  -0.000038720256 0.00001616  0.00000042  0.0004455 0.0000
 66 -28347.4316867021   0.000074373700 0.00008069  0.00000201  0.0004462 0.0000
 67 -28347.4316100440   0.000076658147 0.00011977  0.00000298  0.0004444 0.0000
 68 -28347.4315852606   0.000024783385 0.00013312  0.00000332  0.0004438 0.0000
 69 -28347.4316146882  -0.000029427600 0.00011393  0.00000285  0.0004445 0.0000
 70 -28347.4317083995  -0.000093711315 0.00006155  0.00000157  0.0004471 0.0000
 71 -28347.4318111655  -0.000102765964 0.00002008  0.00000054  0.0004516 0.0000
 72 -28347.4317958760   0.000015289490 0.00004716  0.00000117  0.0004552 0.0000
 73 -28347.4316980916   0.000097784359 0.00009219  0.00000227  0.0004551 0.0000
 74 -28347.4316294757   0.000068615907 0.00011944  0.00000294  0.0004542 0.0000
 75 -28347.4316214417   0.000008034076 0.00012100  0.00000299  0.0004542 0.0000
 76 -28347.4316744855  -0.000053043874 0.00009284  0.00000231  0.0004556 0.0000
 77 -28347.4317721025  -0.000097616958 0.00004902  0.00000125  0.0004587 0.0000
 78 -28347.4318262783  -0.000054175816 0.00003749  0.00000094  0.0004626 0.0000
 79 -28347.4317745715   0.000051706822 0.00006936  0.00000170  0.0004646 0.0000
               *** Restarting incremental Fock matrix formation ***
                                   *** Resetting DIIS ***
 80 -28347.4315811960   0.000193375483 0.00015051  0.00000366  0.0004643 0.0000
 81 -28347.4315843430  -0.000003147048 0.00014958  0.00000365  0.0004624 0.0000
 82 -28347.4316298237  -0.000045480625 0.00012849  0.00000315  0.0004632 0.0000
 83 -28347.4317461792  -0.000116355528 0.00007337  0.00000183  0.0004661 0.0000
 84 -28347.4319589568  -0.000212777606 0.00001235  0.00000028  0.0004709 0.0000
 85 -28347.4318482405   0.000110716283 0.00007833  0.00000187  0.0004766 0.0000
 86 -28347.4317305239   0.000117716638 0.00009921  0.00000241  0.0004736 0.0000
 87 -28347.4316711130   0.000059410897 0.00011827  0.00000287  0.0004737 0.0000
 88 -28347.4316744888  -0.000003375801 0.00011238  0.00000273  0.0004744 0.0000
 89 -28347.4317417063  -0.000067217548 0.00008039  0.00000197  0.0004764 0.0000
 90 -28347.4318497478  -0.000108041455 0.00004101  0.00000103  0.0004798 0.0000
 91 -28347.4318573569  -0.000007609160 0.00005332  0.00000130  0.0004833 0.0000
 92 -28347.4317772161   0.000080140806 0.00008712  0.00000209  0.0004842 0.0000
 93 -28347.4317105109   0.000066705266 0.00010907  0.00000262  0.0004839 0.0000
 94 -28347.4317013628   0.000009148098 0.00010920  0.00000263  0.0004841 0.0000
 95 -28347.4317475263  -0.000046163550 0.00008811  0.00000214  0.0004856 0.0000
 96 -28347.4318221791  -0.000074652748 0.00006102  0.00000149  0.0004883 0.0000
 97 -28347.4318540244  -0.000031845349 0.00005782  0.00000140  0.0004913 0.0000
 98 -28347.4318123760   0.000041648385 0.00007921  0.00000190  0.0004929 0.0000
 99 -28347.4317547174   0.000057658635 0.00009931  0.00000237  0.0004933 0.0000
               *** Restarting incremental Fock matrix formation ***
                                   *** Resetting DIIS ***
100 -28347.4316070853   0.000147632098 0.00016042  0.00000381  0.0004936 0.0000
101 -28347.4316182607  -0.000011175413 0.00015584  0.00000371  0.0004925 0.0000
102 -28347.4316919761  -0.000073715419 0.00012611  0.00000302  0.0004939 0.0000
103 -28347.4318594107  -0.000167434609 0.00005965  0.00000147  0.0004975 0.0000
104 -28347.4321105083  -0.000251097517 0.00002296  0.00000050  0.0005029 0.0000
105 -28347.4319131858   0.000197322497 0.00009474  0.00000221  0.0005082 0.0000
106 -28347.4317542608   0.000158924933 0.00011682  0.00000276  0.0005041 0.0000
107 -28347.4317121234   0.000042137410 0.00012430  0.00000295  0.0005041 0.0000
108 -28347.4317559350  -0.000043811626 0.00010166  0.00000243  0.0005055 0.0000
109 -28347.4318611763  -0.000105241284 0.00006063  0.00000147  0.0005085 0.0000
110 -28347.4319534880  -0.000092311675 0.00004064  0.00000099  0.0005124 0.0000
111 -28347.4318958122   0.000057675796 0.00007492  0.00000177  0.0005148 0.0000
112 -28347.4317950407   0.000100771467 0.00010586  0.00000249  0.0005146 0.0000
113 -28347.4317589850   0.000036055731 0.00011313  0.00000267  0.0005144 0.0000
114 -28347.4317945918  -0.000035606823 0.00009646  0.00000229  0.0005155 0.0000
115 -28347.4318704004  -0.000075808566 0.00006974  0.00000167  0.0005180 0.0000
116 -28347.4319210794  -0.000050678995 0.00006039  0.00000144  0.0005210 0.0000
117 -28347.4318919009   0.000029178460 0.00007827  0.00000184  0.0005230 0.0000
118 -28347.4318305555   0.000061345389 0.00009845  0.00000231  0.0005236 0.0000
119 -28347.4318052267   0.000025328882 0.00010364  0.00000244  0.0005240 0.0000
               *** Restarting incremental Fock matrix formation ***
                                   *** Resetting DIIS ***
120 -28347.4316344903   0.000170736406 0.00017089  0.00000398  0.0005252 0.0000
121 -28347.4316509383  -0.000016448066 0.00016443  0.00000385  0.0005240 0.0000
122 -28347.4317510384  -0.000100100122 0.00012841  0.00000303  0.0005255 0.0000
123 -28347.4319648766  -0.000213838190 0.00005355  0.00000131  0.0005295 0.0000
124 -28347.4322535537  -0.000288677096 0.00002710  0.00000059  0.0005354 0.0000
125 -28347.4319900708   0.000263482922 0.00010510  0.00000241  0.0005407 0.0000
126 -28347.4317973264   0.000192744450 0.00012730  0.00000296  0.0005359 0.0000
127 -28347.4317683062   0.000029020150 0.00012650  0.00000296  0.0005359 0.0000
128 -28347.4318443449  -0.000076038647 0.00009360  0.00000221  0.0005377 0.0000
129 -28347.4319715734  -0.000127228544 0.00005188  0.00000125  0.0005414 0.0000
130 -28347.4320348341  -0.000063260697 0.00005011  0.00000118  0.0005454 0.0000
131 -28347.4319387696   0.000096064519 0.00009075  0.00000210  0.0005468 0.0000
132 -28347.4318420864   0.000096683165 0.00011446  0.00000266  0.0005463 0.0000
133 -28347.4318363470   0.000005739399 0.00011015  0.00000257  0.0005465 0.0000
134 -28347.4319015362  -0.000065189208 0.00008600  0.00000202  0.0005483 0.0000
135 -28347.4319780623  -0.000076526063 0.00006550  0.00000155  0.0005512 0.0000
136 -28347.4319895295  -0.000011467251 0.00007193  0.00000168  0.0005539 0.0000
137 -28347.4319328585   0.000056671051 0.00009332  0.00000217  0.0005551 0.0000
138 -28347.4318858069   0.000047051581 0.00010483  0.00000243  0.0005555 0.0000
139 -28347.4318929760  -0.000007169128 0.00009921  0.00000231  0.0005563 0.0000
               *** Restarting incremental Fock matrix formation ***
                                   *** Resetting DIIS ***
140 -28347.4316638718   0.000229104207 0.00018172  0.00000418  0.0005582 0.0000
141 -28347.4316844564  -0.000020584594 0.00017386  0.00000403  0.0005565 0.0000
142 -28347.4318119457  -0.000127489326 0.00013243  0.00000310  0.0005580 0.0000
143 -28347.4320727310  -0.000260785273 0.00005041  0.00000123  0.0005623 0.0000
144 -28347.4324016764  -0.000328945393 0.00002961  0.00000064  0.0005686 0.0000
145 -28347.4320751425   0.000326533867 0.00011404  0.00000258  0.0005739 0.0000
146 -28347.4318494452   0.000225697375 0.00013591  0.00000313  0.0005687 0.0000
147 -28347.4318333346   0.000016110618 0.00012814  0.00000297  0.0005687 0.0000
148 -28347.4319396076  -0.000106273084 0.00008784  0.00000207  0.0005709 0.0000
149 -28347.4320812710  -0.000141663375 0.00004847  0.00000116  0.0005750 0.0000
150 -28347.4321141036  -0.000032832580 0.00006089  0.00000141  0.0005789 0.0000
151 -28347.4319926785   0.000121425110 0.00010284  0.00000236  0.0005797 0.0000
152 -28347.4319066365   0.000086041968 0.00011931  0.00000275  0.0005791 0.0000
153 -28347.4319288697  -0.000022233206 0.00010637  0.00000247  0.0005797 0.0000
154 -28347.4320134605  -0.000084590774 0.00008003  0.00000188  0.0005820 0.0000
155 -28347.4320769031  -0.000063442603 0.00006848  0.00000160  0.0005851 0.0000
156 -28347.4320554592   0.000021443924 0.00008388  0.00000194  0.0005874 0.0000
157 -28347.4319910582   0.000064400938 0.00010289  0.00000237  0.0005881 0.0000
158 -28347.4319647420   0.000026316240 0.00010640  0.00000246  0.0005886 0.0000
159 -28347.4319958877  -0.000031145741 0.00009498  0.00000221  0.0005899 0.0000
               *** Restarting incremental Fock matrix formation ***
                                   *** Resetting DIIS ***
160 -28347.4316957030   0.000300184733 0.00019275  0.00000441  0.0005922 0.0000
161 -28347.4317207666  -0.000025063615 0.00018349  0.00000423  0.0005899 0.0000
162 -28347.4318785766  -0.000157810005 0.00013687  0.00000319  0.0005913 0.0000
163 -28347.4321896477  -0.000311071053 0.00004835  0.00000118  0.0005959 0.0000
164 -28347.4325609319  -0.000371284197 0.00003137  0.00000067  0.0006028 0.0000
165 -28347.4321672167   0.000393715174 0.00012279  0.00000277  0.0006081 0.0000
166 -28347.4319079080   0.000259308705 0.00014404  0.00000331  0.0006024 0.0000
167 -28347.4319063338   0.000001574201 0.00012985  0.00000301  0.0006023 0.0000
168 -28347.4320432123  -0.000136878480 0.00008369  0.00000197  0.0006049 0.0000
169 -28347.4321953754  -0.000152163164 0.00004785  0.00000114  0.0006095 0.0000
170 -28347.4321981237  -0.000002748231 0.00007137  0.00000164  0.0006133 0.0000
171 -28347.4320575970   0.000140526692 0.00011281  0.00000258  0.0006135 0.0000
172 -28347.4319845419   0.000073055111 0.00012264  0.00000283  0.0006129 0.0000
173 -28347.4320328469  -0.000048305024 0.00010333  0.00000240  0.0006138 0.0000
174 -28347.4321299102  -0.000097063355 0.00007764  0.00000182  0.0006166 0.0000
175 -28347.4321748178  -0.000044907556 0.00007445  0.00000173  0.0006198 0.0000
176 -28347.4321285656   0.000046252193 0.00009426  0.00000217  0.0006216 0.0000
177 -28347.4320656839   0.000062881696 0.00010936  0.00000252  0.0006221 0.0000
178 -28347.4320598730   0.000005810889 0.00010665  0.00000247  0.0006228 0.0000
179 -28347.4321073586  -0.000047485599 0.00009290  0.00000216  0.0006246 0.0000
               *** Restarting incremental Fock matrix formation ***
                                   *** Resetting DIIS ***
180 -28347.4317304882   0.000376870412 0.00020393  0.00000466  0.0006270 0.0000
181 -28347.4317608077  -0.000030319465 0.00019321  0.00000445  0.0006243 0.0000
182 -28347.4319525747  -0.000191767063 0.00014148  0.00000330  0.0006256 0.0000
183 -28347.4323186312  -0.000366056458 0.00004680  0.00000115  0.0006305 0.0000
184 -28347.4327349187  -0.000416287454 0.00003269  0.00000070  0.0006378 0.0000
185 -28347.4322673983   0.000467520316 0.00013155  0.00000296  0.0006432 0.0000
186 -28347.4319729543   0.000294444057 0.00015199  0.00000349  0.0006370 0.0000
187 -28347.4319877849  -0.000014830603 0.00013180  0.00000306  0.0006369 0.0000
188 -28347.4321563054  -0.000168520553 0.00008082  0.00000191  0.0006399 0.0000
189 -28347.4323168680  -0.000160562580 0.00004891  0.00000117  0.0006449 0.0000
190 -28347.4322903076   0.000026560403 0.00008121  0.00000187  0.0006485 0.0000
191 -28347.4321338297   0.000156477869 0.00012146  0.00000279  0.0006483 0.0000
192 -28347.4320746664   0.000059163369 0.00012542  0.00000290  0.0006477 0.0000
193 -28347.4321475042  -0.000072837774 0.00010142  0.00000237  0.0006490 0.0000
194 -28347.4322524271  -0.000104922936 0.00007775  0.00000182  0.0006521 0.0000
195 -28347.4322773736  -0.000024946468 0.00008145  0.00000189  0.0006552 0.0000
196 -28347.4322125052   0.000064868320 0.00010313  0.00000238  0.0006567 0.0000
197 -28347.4321552906   0.000057214587 0.00011421  0.00000264  0.0006571 0.0000
198 -28347.4321681845  -0.000012893859 0.00010697  0.00000248  0.0006581 0.0000
199 -28347.4322264080  -0.000058223508 0.00009292  0.00000217  0.0006602 0.0000
               *** Restarting incremental Fock matrix formation ***
                                   *** Resetting DIIS ***
200 -28347.4317687798   0.000457628190 0.00021527  0.00000493  0.0006627 0.0000
201 -28347.4318052482  -0.000036468387 0.00020310  0.00000469  0.0006595 0.0000
202 -28347.4320349859  -0.000229737674 0.00014637  0.00000343  0.0006608 0.0000
203 -28347.4324617073  -0.000426721424 0.00004570  0.00000113  0.0006660 0.0000
204 -28347.4329267941  -0.000465086803 0.00003382  0.00000073  0.0006737 0.0000
205 -28347.4323774880   0.000549306158 0.00014046  0.00000317  0.0006792 0.0000
206 -28347.4320454614   0.000332026582 0.00016003  0.00000369  0.0006726 0.0000
207 -28347.4320784659  -0.000033004486 0.00013426  0.00000313  0.0006725 0.0000
208 -28347.4322801437  -0.000201677802 0.00007916  0.00000188  0.0006759 0.0000
209 -28347.4324483581  -0.000168214472 0.00005105  0.00000122  0.0006812 0.0000
210 -28347.4323931556   0.000055202563 0.00009053  0.00000208  0.0006846 0.0000
211 -28347.4322219405   0.000171215022 0.00012949  0.00000298  0.0006840 0.0000
212 -28347.4321769182   0.000045022301 0.00012836  0.00000298  0.0006835 0.0000
213 -28347.4322732902  -0.000096371983 0.00010085  0.00000236  0.0006852 0.0000
214 -28347.4323833485  -0.000110058281 0.00007968  0.00000187  0.0006886 0.0000
215 -28347.4323885837  -0.000005235168 0.00008884  0.00000207  0.0006916 0.0000
216 -28347.4323090732   0.000079510479 0.00011115  0.00000257  0.0006928 0.0000
217 -28347.4322591776   0.000049895643 0.00011863  0.00000275  0.0006932 0.0000
218 -28347.4322889162  -0.000029738614 0.00010816  0.00000253  0.0006944 0.0000
219 -28347.4323542852  -0.000065369077 0.00009480  0.00000222  0.0006968 0.0000
               *** Restarting incremental Fock matrix formation ***
                                   *** Resetting DIIS ***
220 -28347.4318111863   0.000543098970 0.00022738  0.00000522  0.0006993 0.0000
221 -28347.4318547282  -0.000043541884 0.00021369  0.00000495  0.0006957 0.0000
222 -28347.4321267959  -0.000272067704 0.00015187  0.00000357  0.0006969 0.0000
223 -28347.4326207728  -0.000493976964 0.00004507  0.00000112  0.0007025 0.0000
224 -28347.4331397146  -0.000518941804 0.00003491  0.00000076  0.0007106 0.0000
225 -28347.4324995146   0.000640199985 0.00014967  0.00000340  0.0007162 0.0000
226 -28347.4321264799   0.000373034716 0.00016844  0.00000390  0.0007091 0.0000
227 -28347.4321793271  -0.000052847208 0.00013738  0.00000322  0.0007091 0.0000
228 -28347.4324162474  -0.000236920238 0.00007854  0.00000189  0.0007128 0.0000
229 -28347.4325924228  -0.000176175432 0.00005388  0.00000129  0.0007184 0.0000
230 -28347.4325088110   0.000083611849 0.00009942  0.00000230  0.0007217 0.0000
231 -28347.4323227171   0.000186093814 0.00013722  0.00000318  0.0007208 0.0000
232 -28347.4322918047   0.000030912433 0.00013165  0.00000308  0.0007204 0.0000
233 -28347.4324113921  -0.000119587374 0.00010139  0.00000240  0.0007223 0.0000
234 -28347.4325253112  -0.000113919072 0.00008274  0.00000196  0.0007259 0.0000
235 -28347.4325115264   0.000013784764 0.00009619  0.00000225  0.0007289 0.0000
236 -28347.4324195528   0.000091973598 0.00011854  0.00000276  0.0007299 0.0000
237 -28347.4323774343   0.000042118540 0.00012291  0.00000287  0.0007303 0.0000
238 -28347.4324226203  -0.000045186018 0.00011009  0.00000259  0.0007318 0.0000
239 -28347.4324931384  -0.000070518097 0.00009781  0.00000231  0.0007343 0.0000
               *** Restarting incremental Fock matrix formation ***
                                   *** Resetting DIIS ***
240 -28347.4318583809   0.000634757471 0.00023972  0.00000555  0.0007368 0.0000
241 -28347.4319099444  -0.000051563511 0.00022453  0.00000524  0.0007328 0.0000
242 -28347.4322291120  -0.000319167561 0.00015769  0.00000374  0.0007340 0.0000
243 -28347.4327978767  -0.000568764743 0.00004478  0.00000112  0.0007400 0.0000
244 -28347.4333769705  -0.000579093739 0.00003602  0.00000079  0.0007485 0.0000
245 -28347.4326356012   0.000741369298 0.00015892  0.00000364  0.0007542 0.0000
246 -28347.4322171534   0.000418447773 0.00017696  0.00000413  0.0007466 0.0000
247 -28347.4322915068  -0.000074353386 0.00014097  0.00000334  0.0007466 0.0000
248 -28347.4325664250  -0.000274918188 0.00007868  0.00000191  0.0007506 0.0000
249 -28347.4327516770  -0.000185252084 0.00005705  0.00000137  0.0007565 0.0000
250 -28347.4326392996   0.000112377453 0.00010787  0.00000251  0.0007598 0.0000
251 -28347.4324371834   0.000202116214 0.00014472  0.00000339  0.0007586 0.0000
252 -28347.4324202836   0.000016899812 0.00013528  0.00000319  0.0007584 0.0000
253 -28347.4325634915  -0.000143207933 0.00010276  0.00000245  0.0007607 0.0000
254 -28347.4326810375  -0.000117545966 0.00008644  0.00000206  0.0007646 0.0000
255 -28347.4326487848   0.000032252621 0.00010336  0.00000244  0.0007676 0.0000
256 -28347.4325452064   0.000103578459 0.00012551  0.00000295  0.0007685 0.0000
257 -28347.4325107908   0.000034415629 0.00012723  0.00000301  0.0007691 0.0000
258 -28347.4325706333  -0.000059842558 0.00011267  0.00000268  0.0007709 0.0000
259 -28347.4326454419  -0.000074808606 0.00010156  0.00000242  0.0007737 0.0000
               *** Restarting incremental Fock matrix formation ***
                                   *** Resetting DIIS ***
260 -28347.4319111132   0.000734328671 0.00025224  0.00000589  0.0007763 0.0000
261 -28347.4319716867  -0.000060573453 0.00023559  0.00000556  0.0007722 0.0000
262 -28347.4323432275  -0.000371540766 0.00016380  0.00000393  0.0007737 0.0000
263 -28347.4329953382  -0.000652110768 0.00004478  0.00000114  0.0007801 0.0000
264 -28347.4336420685  -0.000646730281 0.00003720  0.00000082  0.0007890 0.0000
265 -28347.4327879565   0.000854112011 0.00016819  0.00000389  0.0007947 0.0000
266 -28347.4323187312   0.000469225313 0.00018561  0.00000439  0.0007870 0.0000
267 -28347.4324163470  -0.000097615841 0.00014498  0.00000348  0.0007872 0.0000
268 -28347.4327327508  -0.000316403737 0.00007940  0.00000195  0.0007916 0.0000
269 -28347.4329288050  -0.000196054265 0.00006037  0.00000147  0.0007978 0.0000
270 -28347.4327866615   0.000142143530 0.00011594  0.00000273  0.0008010 0.0000
271 -28347.4325666083   0.000220053167 0.00015211  0.00000360  0.0007998 0.0000
272 -28347.4325636869   0.000002921428 0.00013925  0.00000333  0.0007996 0.0000
273 -28347.4327316281  -0.000167941176 0.00010479  0.00000253  0.0008022 0.0000
274 -28347.4328532877  -0.000121659650 0.00009051  0.00000218  0.0008062 0.0000
275 -28347.4328027470   0.000050540773 0.00011029  0.00000263  0.0008091 0.0000
276 -28347.4326874729   0.000115274026 0.00013222  0.00000315  0.0008100 0.0000
277 -28347.4326604917   0.000026981197 0.00013170  0.00000315  0.0008106 0.0000
278 -28347.4327347966  -0.000074304869 0.00011577  0.00000279  0.0008125 0.0000
279 -28347.4328138059  -0.000079009285 0.00010576  0.00000255  0.0008155 0.0000
               *** Restarting incremental Fock matrix formation ***
                                   *** Resetting DIIS ***
280 -28347.4319702212   0.000843584643 0.00026489  0.00000627  0.0008181 0.0000
281 -28347.4320408569  -0.000070635659 0.00024682  0.00000590  0.0008137 0.0000
282 -28347.4324706423  -0.000429785385 0.00017014  0.00000414  0.0008152 0.0000
283 -28347.4332157742  -0.000745131892 0.00004500  0.00000116  0.0008219 0.0000
284 -28347.4339387767  -0.000723002511 0.00003846  0.00000086  0.0008312 0.0000
285 -28347.4329589049   0.000979871787 0.00017743  0.00000416  0.0008370 0.0000
286 -28347.4324325937   0.000526311200 0.00019435  0.00000466  0.0008289 0.0000
287 -28347.4325554057  -0.000122812038 0.00014936  0.00000363  0.0008291 0.0000
288 -28347.4329175504  -0.000362144659 0.00008057  0.00000201  0.0008339 0.0000
289 -28347.4331266009  -0.000209050500 0.00006374  0.00000157  0.0008403 0.0000
290 -28347.4329530449   0.000173556007 0.00012367  0.00000296  0.0008434 0.0000
291 -28347.4327125141   0.000240530779 0.00015942  0.00000383  0.0008420 0.0000
292 -28347.4327236718  -0.000011157703 0.00014353  0.00000349  0.0008419 0.0000
293 -28347.4329181288  -0.000194457025 0.00010731  0.00000263  0.0008447 0.0000
294 -28347.4330448843  -0.000126755462 0.00009476  0.00000232  0.0008489 0.0000
295 -28347.4329757904   0.000069093876 0.00011700  0.00000283  0.0008518 0.0000
296 -28347.4328480346   0.000127755873 0.00013875  0.00000336  0.0008525 0.0000
297 -28347.4328281923   0.000019842220 0.00013632  0.00000332  0.0008532 0.0000
298 -28347.4329173056  -0.000089113277 0.00011926  0.00000292  0.0008553 0.0000
299 -28347.4330009384  -0.000083632800 0.00011021  0.00000270  0.0008583 0.0000
               *** Restarting incremental Fock matrix formation ***
                                   *** Resetting DIIS ***
300 -28347.4320366459   0.000964292532 0.00027757  0.00000668  0.0008609 0.0000
301 -28347.4321184849  -0.000081838967 0.00025811  0.00000627  0.0008563 0.0000
302 -28347.4326130742  -0.000494589356 0.00017665  0.00000437  0.0008578 0.0000
303 -28347.4334621151  -0.000849040902 0.00004539  0.00000120  0.0008648 0.0000
304 -28347.4342711643  -0.000809049227 0.00003982  0.00000091  0.0008744 0.0000
305 -28347.4331509187   0.001120245634 0.00018659  0.00000445  0.0008804 0.0000
306 -28347.4325602719   0.000590646785 0.00020314  0.00000495  0.0008719 0.0000
307 -28347.4327104621  -0.000150190201 0.00015402  0.00000382  0.0008721 0.0000
308 -28347.4331233891  -0.000412927027 0.00008206  0.00000209  0.0008771 0.0000
309 -28347.4333480084  -0.000224619260 0.00006706  0.00000168  0.0008838 0.0000
310 -28347.4331407651   0.000207243313 0.00013109  0.00000319  0.0008869 0.0000
311 -28347.4328766788   0.000264086317 0.00016667  0.00000408  0.0008853 0.0000
312 -28347.4329021948  -0.000025516052 0.00014805  0.00000366  0.0008852 0.0000
313 -28347.4331255791  -0.000223384253 0.00011014  0.00000276  0.0008882 0.0000
314 -28347.4332587620  -0.000133182886 0.00009905  0.00000247  0.0008925 0.0000
315 -28347.4331703993   0.000088362696 0.00012347  0.00000304  0.0008954 0.0000
316 -28347.4330288446   0.000141554636 0.00014514  0.00000358  0.0008960 0.0000
317 -28347.4330158986   0.000012946068 0.00014106  0.00000350  0.0008968 0.0000
318 -28347.4331206413  -0.000104742692 0.00012299  0.00000307  0.0008990 0.0000
319 -28347.4332096664  -0.000089025114 0.00011475  0.00000286  0.0009021 0.0000
               *** Restarting incremental Fock matrix formation ***
                                   *** Resetting DIIS ***
320 -28347.4321114466   0.001098219760 0.00029015  0.00000712  0.0009047 0.0000
321 -28347.4322057387  -0.000094292125 0.00026934  0.00000668  0.0008998 0.0000
322 -28347.4327724568  -0.000566718070 0.00018321  0.00000463  0.0009013 0.0000
323 -28347.4337376041  -0.000965147276 0.00004589  0.00000124  0.0009085 0.0000
324 -28347.4346436211  -0.000906017012 0.00004127  0.00000096  0.0009186 0.0000
325 -28347.4333666468   0.001276974293 0.00019558  0.00000476  0.0009246 0.0000
326 -28347.4327034633   0.000663183531 0.00021188  0.00000527  0.0009158 0.0000
327 -28347.4328835174  -0.000180054085 0.00015885  0.00000402  0.0009160 0.0000
328 -28347.4333530794  -0.000469562005 0.00008375  0.00000218  0.0009212 0.0000
329 -28347.4335961629  -0.000243083534 0.00007027  0.00000180  0.0009281 0.0000
330 -28347.4333523366   0.000243826267 0.00013819  0.00000343  0.0009312 0.0000
331 -28347.4330611235   0.000291213102 0.00017380  0.00000434  0.0009294 0.0000
332 -28347.4331014824  -0.000040358831 0.00015271  0.00000386  0.0009293 0.0000
333 -28347.4333568049  -0.000255322549 0.00011316  0.00000289  0.0009325 0.0000
334 -28347.4334980036  -0.000141198656 0.00010328  0.00000263  0.0009370 0.0000
335 -28347.4333892152   0.000108788350 0.00012966  0.00000326  0.0009398 0.0000
336 -28347.4332321126   0.000157102648 0.00015136  0.00000381  0.0009404 0.0000
337 -28347.4332259167   0.000006195816 0.00014584  0.00000370  0.0009411 0.0000
338 -28347.4333475331  -0.000121616347 0.00012684  0.00000324  0.0009435 0.0000
339 -28347.4334429671  -0.000095434025 0.00011927  0.00000304  0.0009467 0.0000
               *** Restarting incremental Fock matrix formation ***
                                   *** Resetting DIIS ***
340 -28347.4321958196   0.001247147567 0.00030246  0.00000759  0.0009493 0.0000
341 -28347.4323039461  -0.000108126591 0.00028036  0.00000711  0.0009441 0.0000
342 -28347.4329509644  -0.000647018252 0.00018969  0.00000490  0.0009455 0.0000
343 -28347.4340458172  -0.001094852825 0.00004644  0.00000128  0.0009530 0.0000
344 -28347.4350608843  -0.001015067028 0.00004277  0.00000102  0.0009634 0.0000
345 -28347.4336089401   0.001451944110 0.00020432  0.00000510  0.0009696 0.0000
346 -28347.4328640457   0.000744894412 0.00022045  0.00000562  0.0009604 0.0000
347 -28347.4330768061  -0.000212760369 0.00016372  0.00000424  0.0009605 0.0000
348 -28347.4336096858  -0.000532879705 0.00008551  0.00000228  0.0009660 0.0000
349 -28347.4338744160  -0.000264730203 0.00007330  0.00000192  0.0009731 0.0000
350 -28347.4335904957   0.000283920272 0.00014493  0.00000369  0.0009762 0.0000
351 -28347.4332681237   0.000322371990 0.00018073  0.00000463  0.0009743 0.0000
352 -28347.4333240358  -0.000055912016 0.00015739  0.00000408  0.0009741 0.0000
353 -28347.4336148897  -0.000290853965 0.00011622  0.00000305  0.0009774 0.0000
354 -28347.4337658928  -0.000151003078 0.00010734  0.00000280  0.0009821 0.0000
355 -28347.4336350928   0.000130799966 0.00013553  0.00000350  0.0009848 0.0000
356 -28347.4334603240   0.000174768807 0.00015734  0.00000407  0.0009854 0.0000
357 -28347.4334608505  -0.000000526463 0.00015055  0.00000392  0.0009861 0.0000
358 -28347.4336009730  -0.000140122509 0.00013066  0.00000342  0.0009885 0.0000
359 -28347.4337040176  -0.000103044629 0.00012363  0.00000324  0.0009918 0.0000
               *** Restarting incremental Fock matrix formation ***
                                   *** Resetting DIIS ***
360 -28347.4322911173   0.001412900296 0.00031430  0.00000810  0.0009944 0.0000
361 -28347.4324146045  -0.000123487192 0.00029096  0.00000758  0.0009890 0.0000
362 -28347.4331510084  -0.000736403901 0.00019595  0.00000520  0.0009903 0.0000
363 -28347.4343906506  -0.001239642184 0.00004698  0.00000134  0.0009980 0.0000
364 -28347.4355280231  -0.001137372492 0.00004431  0.00000109  0.0010087 0.0000
365 -28347.4338808599   0.001647163230 0.00021266  0.00000545  0.0010150 0.0000
366 -28347.4330440854   0.000836774434 0.00022869  0.00000599  0.0010055 0.0000
367 -28347.4332927963  -0.000248710883 0.00016849  0.00000449  0.0010056 0.0000
368 -28347.4338965353  -0.000603738954 0.00008724  0.00000240  0.0010112 0.0000
369 -28347.4341863569  -0.000289821648 0.00007610  0.00000205  0.0010185 0.0000
370 -28347.4338582034   0.000328153481 0.00015123  0.00000396  0.0010216 0.0000
371 -28347.4335001936   0.000358009882 0.00018734  0.00000494  0.0010195 0.0000
372 -28347.4335726191  -0.000072425519 0.00016193  0.00000432  0.0010193 0.0000
373 -28347.4339031747  -0.000330555660 0.00011918  0.00000322  0.0010227 0.0000
374 -28347.4340659306  -0.000162755834 0.00011113  0.00000298  0.0010274 0.0000
375 -28347.4339111025   0.000154828122 0.00014099  0.00000375  0.0010302 0.0000
376 -28347.4337162116   0.000194890836 0.00016297  0.00000434  0.0010307 0.0000
377 -28347.4337235633  -0.000007351711 0.00015505  0.00000416  0.0010314 0.0000
378 -28347.4338841923  -0.000160629013 0.00013430  0.00000363  0.0010339 0.0000
379 -28347.4339961967  -0.000112004400 0.00012771  0.00000344  0.0010372 0.0000
               *** Restarting incremental Fock matrix formation ***
                                   *** Resetting DIIS ***
380 -28347.4323988719   0.001597324852 0.00032542  0.00000864  0.0010398 0.0000
381 -28347.4325394067  -0.000140534859 0.00030091  0.00000808  0.0010342 0.0000
382 -28347.4333752541  -0.000835847335 0.00020180  0.00000553  0.0010353 0.0000
383 -28347.4347763175  -0.001401063404 0.00004743  0.00000140  0.0010432 0.0000
384 -28347.4360504224  -0.001274104940 0.00004583  0.00000116  0.0010541 0.0000
385 -28347.4341856790   0.001864743383 0.00022043  0.00000584  0.0010605 0.0000
386 -28347.4332458490   0.000939830064 0.00023641  0.00000639  0.0010507 0.0000
387 -28347.4335342005  -0.000288351566 0.00017298  0.00000476  0.0010508 0.0000
388 -28347.4342172239  -0.000683023376 0.00008882  0.00000252  0.0010566 0.0000
389 -28347.4345358157  -0.000318591803 0.00007859  0.00000218  0.0010640 0.0000
390 -28347.4341586454   0.000377170349 0.00015699  0.00000425  0.0010670 0.0000
391 -28347.4337600834   0.000398562010 0.00019347  0.00000527  0.0010648 0.0000
392 -28347.4338502563  -0.000090172893 0.00016616  0.00000459  0.0010646 0.0000
393 -28347.4342252640  -0.000375007734 0.00012189  0.00000340  0.0010680 0.0000
394 -28347.4344018470  -0.000176583049 0.00011454  0.00000318  0.0010728 0.0000
395 -28347.4342205388   0.000181308267 0.00014594  0.00000401  0.0010756 0.0000
396 -28347.4340027591   0.000217779638 0.00016814  0.00000463  0.0010759 0.0000
397 -28347.4340171920  -0.000014432837 0.00015918  0.00000442  0.0010766 0.0000
398 -28347.4342006810  -0.000183488992 0.00013762  0.00000385  0.0010792 0.0000
399 -28347.4343231125  -0.000122431546 0.00013137  0.00000367  0.0010825 0.0000
               *** Restarting incremental Fock matrix formation ***
                                   *** Resetting DIIS ***
400 -28347.4325208205   0.001802291994 0.00033551  0.00000923  0.0010851 0.0000
401 -28347.4326802626  -0.000159442046 0.00030990  0.00000862  0.0010792 0.0000
402 -28347.4336266292  -0.000946366588 0.00020702  0.00000588  0.0010802 0.0000
403 -28347.4352073331  -0.001580703956 0.00004774  0.00000146  0.0010882 0.0000
404 -28347.4366337330  -0.001426399846 0.00004729  0.00000125  0.0010993 0.0000
405 -28347.4345268759   0.002106857097 0.00022742  0.00000625  0.0011058 0.0000
406 -28347.4334718117   0.001055064160 0.00024337  0.00000683  0.0010958 0.0000
407 -28347.4338039807  -0.000332168987 0.00017697  0.00000506  0.0010957 0.0000
408 -28347.4345756126  -0.000771631956 0.00009013  0.00000266  0.0011016 0.0000
409 -28347.4349268569  -0.000351244238 0.00008069  0.00000233  0.0011091 0.0000
410 -28347.4344952207   0.000431636174 0.00016207  0.00000455  0.0011121 0.0000
411 -28347.4340507734   0.000444447269 0.00019892  0.00000563  0.0011097 0.0000
412 -28347.4341602292  -0.000109455734 0.00016989  0.00000487  0.0011094 0.0000
413 -28347.4345850182  -0.000424788992 0.00012420  0.00000361  0.0011130 0.0000
414 -28347.4347775962  -0.000192578049 0.00011743  0.00000339  0.0011178 0.0000
415 -28347.4345669034   0.000210692855 0.00015024  0.00000430  0.0011205 0.0000
416 -28347.4343231729   0.000243730487 0.00017264  0.00000495  0.0011208 0.0000
417 -28347.4343451098  -0.000021936958 0.00016275  0.00000470  0.0011214 0.0000
418 -28347.4345541667  -0.000209056878 0.00014042  0.00000408  0.0011239 0.0000
419 -28347.4346885854  -0.000134418726 0.00013447  0.00000391  0.0011273 0.0000
               *** Restarting incremental Fock matrix formation ***
                                   *** Resetting DIIS ***
420 -28347.4326589355   0.002029649957 0.00034417  0.00000986  0.0011298 0.0000
421 -28347.4328393265  -0.000180390987 0.00031758  0.00000920  0.0011238 0.0000
422 -28347.4339083235  -0.001068997084 0.00021136  0.00000626  0.0011246 0.0000
423 -28347.4356884731  -0.001780149505 0.00004784  0.00000153  0.0011326 0.0000
424 -28347.4372837953  -0.001595322276 0.00004862  0.00000134  0.0011438 0.0000
425 -28347.4349081022   0.002375693111 0.00023337  0.00000669  0.0011503 0.0000
426 -28347.4337246532   0.001183449043 0.00024928  0.00000730  0.0011401 0.0000
427 -28347.4341053342  -0.000380681005 0.00018025  0.00000538  0.0011399 0.0000
428 -28347.4349757967  -0.000870462478 0.00009104  0.00000281  0.0011458 0.0000
429 -28347.4353637347  -0.000387938031 0.00008233  0.00000248  0.0011535 0.0000
430 -28347.4348715049   0.000492229781 0.00016631  0.00000488  0.0011564 0.0000
431 -28347.4343754558   0.000496049088 0.00020345  0.00000602  0.0011539 0.0000
432 -28347.4345060609  -0.000130605080 0.00017288  0.00000518  0.0011535 0.0000
433 -28347.4349865334  -0.000480472474 0.00012591  0.00000382  0.0011570 0.0000
434 -28347.4351973314  -0.000210798018 0.00011967  0.00000361  0.0011619 0.0000
435 -28347.4349538841   0.000243447321 0.00015372  0.00000460  0.0011645 0.0000
436 -28347.4346808702   0.000273013899 0.00017628  0.00000529  0.0011646 0.0000
437 -28347.4347109279  -0.000030057694 0.00016554  0.00000501  0.0011652 0.0000
438 -28347.4349486035  -0.000237675595 0.00014251  0.00000434  0.0011677 0.0000
439 -28347.4350966404  -0.000148036957 0.00013681  0.00000417  0.0011711 0.0000
               *** Restarting incremental Fock matrix formation ***
                                   *** Resetting DIIS ***
440 -28347.4328154583   0.002281182093 0.00035098  0.00001054  0.0011735 0.0000
441 -28347.4330190165  -0.000203558200 0.00032352  0.00000983  0.0011673 0.0000
442 -28347.4342237757  -0.001204759166 0.00021453  0.00000667  0.0011678 0.0000
443 -28347.4362246734  -0.002000897712 0.00004912  0.00000160  0.0011758 0.0000
444 -28347.4380064774  -0.001781804018 0.00004973  0.00000144  0.0011870 0.0000
445 -28347.4353331491   0.002673328323 0.00023796  0.00000716  0.0011935 0.0000
446 -28347.4340072644   0.001325884681 0.00025404  0.00000781  0.0011832 0.0000
447 -28347.4344416782  -0.000434413767 0.00018409  0.00000573  0.0011829 0.0000
448 -28347.4354220491  -0.000980370925 0.00009325  0.00000296  0.0011888 0.0000
449 -28347.4358508257  -0.000428776631 0.00008502  0.00000264  0.0011964 0.0000
450 -28347.4352912036   0.000559622149 0.00017170  0.00000523  0.0011993 0.0000
451 -28347.4347374986   0.000553705027 0.00021034  0.00000643  0.0011966 0.0000
452 -28347.4348914715  -0.000153972946 0.00017898  0.00000552  0.0011961 0.0000
453 -28347.4354340757  -0.000542604193 0.00013071  0.00000406  0.0011996 0.0000
454 -28347.4356653293  -0.000231253558 0.00012502  0.00000385  0.0012044 0.0000
455 -28347.4353852858   0.000280043459 0.00016116  0.00000492  0.0012069 0.0000
456 -28347.4350794102   0.000305875616 0.00018506  0.00000565  0.0012070 0.0000
457 -28347.4351184111  -0.000039000872 0.00017400  0.00000534  0.0012074 0.0000
458 -28347.4353880835  -0.000269672484 0.00015018  0.00000462  0.0012099 0.0000
459 -28347.4355514048  -0.000163321241 0.00014489  0.00000444  0.0012131 0.0000
               *** Restarting incremental Fock matrix formation ***
                                   *** Resetting DIIS ***
460 -28347.4329929397   0.002558465032 0.00037315  0.00001128  0.0012155 0.0000
461 -28347.4332220620  -0.000229122237 0.00034612  0.00001050  0.0012140 0.0000
462 -28347.4345766460  -0.001354584048 0.00023081  0.00000711  0.0012209 0.0000
463 -28347.4368209376  -0.002244291536 0.00005220  0.00000168  0.0012337 0.0000
464 -28347.4388075233  -0.001986585696 0.00005307  0.00000155  0.0012470 0.0000
465 -28347.4358058835   0.003001639761 0.00025685  0.00000767  0.0012532 0.0000
466 -28347.4343227494   0.001483134118 0.00027570  0.00000835  0.0012471 0.0000
467 -28347.4348166223  -0.000493872925 0.00019886  0.00000610  0.0012520 0.0000
468 -28347.4359187454  -0.001102123108 0.00009988  0.00000313  0.0012623 0.0000
469 -28347.4363925399  -0.000473794473 0.00009180  0.00000281  0.0012727 0.0000
470 -28347.4357581014   0.000634438504 0.00018659  0.00000560  0.0012778 0.0000
471 -28347.4351404212   0.000617680224 0.00022814  0.00000688  0.0012786 0.0000
472 -28347.4353203262  -0.000179905004 0.00019332  0.00000588  0.0012825 0.0000
473 -28347.4359319943  -0.000611668085 0.00014063  0.00000431  0.0012901 0.0000
474 -28347.4361859036  -0.000253909300 0.00013505  0.00000410  0.0012984 0.0000
475 -28347.4358649754   0.000320928139 0.00017483  0.00000527  0.0013039 0.0000
476 -28347.4355224618   0.000342513613 0.00020056  0.00000605  0.0013075 0.0000
477 -28347.4355714402  -0.000048978349 0.00018798  0.00000569  0.0013120 0.0000
478 -28347.4358767762  -0.000305336016 0.00016189  0.00000491  0.0013185 0.0000
479 -28347.4360570525  -0.000180276300 0.00015649  0.00000473  0.0013256 0.0000
               *** Restarting incremental Fock matrix formation ***
                                   *** Resetting DIIS ***
480 -28347.4331942860   0.002862766461 0.00040419  0.00001206  0.0013314 0.0000
481 -28347.4334515253  -0.000257239244 0.00037470  0.00001123  0.0013323 0.0000
482 -28347.4349707491  -0.001519223886 0.00024910  0.00000757  0.0013399 0.0000
483 -28347.4374821022  -0.002511353094 0.00005533  0.00000176  0.0013538 0.0000
484 -28347.4396922333  -0.002210131097 0.00005784  0.00000167  0.0013680 0.0000
485 -28347.4363301717   0.003362061667 0.00027847  0.00000822  0.0013746 0.0000
486 -28347.4346744285   0.001655743145 0.00029864  0.00000894  0.0013683 0.0000
487 -28347.4352339089  -0.000559480392 0.00021443  0.00000650  0.0013738 0.0000
488 -28347.4364702181  -0.001236309214 0.00010677  0.00000331  0.0013850 0.0000
489 -28347.4369931856  -0.000522967457 0.00009885  0.00000299  0.0013963 0.0000
490 -28347.4362759996   0.000717186016 0.00020230  0.00000600  0.0014018 0.0000
491 -28347.4355878514   0.000688148146 0.00024696  0.00000737  0.0014027 0.0000
492 -28347.4357965498  -0.000208698410 0.00020843  0.00000627  0.0014071 0.0000
493 -28347.4364845792  -0.000688029388 0.00015099  0.00000458  0.0014155 0.0000
494 -28347.4367632755  -0.000278696240 0.00014554  0.00000437  0.0014244 0.0000
495 -28347.4363968027   0.000366472770 0.00018922  0.00000564  0.0014304 0.0000
496 -28347.4360137382   0.000383064453 0.00021690  0.00000647  0.0014344 0.0000
497 -28347.4360739078  -0.000060169590 0.00020269  0.00000607  0.0014394 0.0000
498 -28347.4364187914  -0.000344883618 0.00017414  0.00000523  0.0014466 0.0000
499 -28347.4366176675  -0.000198876078 0.00016861  0.00000505  0.0014542 0.0000
               *** Restarting incremental Fock matrix formation ***
                                   *** Resetting DIIS ***
500 -28347.4334228140   0.003194853514 0.00043683  0.00001291  0.0014606 0.0000
501 -28347.4337108330  -0.000288019004 0.00040471  0.00001201  0.0014619 0.0000
502 -28347.4354099546  -0.001699121563 0.00026823  0.00000808  0.0014703 0.0000
503 -28347.4382125463  -0.002802591705 0.00005849  0.00000184  0.0014854 0.0000
504 -28347.4406650974  -0.002452551103 0.00006292  0.00000181  0.0015005 0.0000
505 -28347.4369097798   0.003755317550 0.00030119  0.00000882  0.0015074 0.0000
506 -28347.4350658328   0.001843947070 0.00032274  0.00000957  0.0015011 0.0000
507 -28347.4356972970  -0.000631464256 0.00023071  0.00000693  0.0015072 0.0000
508 -28347.4370805212  -0.001383224211 0.00011383  0.00000350  0.0015194 0.0000
509 -28347.4376567438  -0.000576222592 0.00010613  0.00000319  0.0015316 0.0000
510 -28347.4368485959   0.000808147935 0.00021875  0.00000644  0.0015375 0.0000
511 -28347.4360834282   0.000765167646 0.00026667  0.00000789  0.0015386 0.0000
512 -28347.4363239359  -0.000240507623 0.00022419  0.00000669  0.0015436 0.0000
513 -28347.4370957841  -0.000771848194 0.00016171  0.00000486  0.0015527 0.0000
514 -28347.4374013310  -0.000305546902 0.00015640  0.00000466  0.0015624 0.0000
515 -28347.4369844546   0.000416876381 0.00020423  0.00000604  0.0015689 0.0000
516 -28347.4365568689   0.000427585721 0.00023397  0.00000692  0.0015733 0.0000
517 -28347.4366295380  -0.000072669129 0.00021799  0.00000648  0.0015789 0.0000
518 -28347.4370179412  -0.000388403201 0.00018681  0.00000557  0.0015867 0.0000
519 -28347.4372370253  -0.000219084162 0.00018117  0.00000539  0.0015950 0.0000
               *** Restarting incremental Fock matrix formation ***
                                   *** Resetting DIIS ***
520 -28347.4336823167   0.003554708663 0.00047079  0.00001382  0.0016019 0.0000
521 -28347.4340038157  -0.000321499007 0.00043590  0.00001284  0.0016039 0.0000
522 -28347.4358980100  -0.001894194291 0.00028801  0.00000862  0.0016130 0.0000
523 -28347.4390157365  -0.003117726490 0.00006166  0.00000193  0.0016293 0.0000
524 -28347.4417292605  -0.002713524038 0.00006827  0.00000195  0.0016454 0.0000
525 -28347.4375482449   0.004181015625 0.00032480  0.00000945  0.0016527 0.0000
526 -28347.4355007065   0.002047538379 0.00034778  0.00001026  0.0016464 0.0000
527 -28347.4362104064  -0.000709699885 0.00024754  0.00000740  0.0016532 0.0000
528 -28347.4377531047  -0.001542698283 0.00012103  0.00000371  0.0016664 0.0000
529 -28347.4383866098  -0.000633505089 0.00011358  0.00000339  0.0016794 0.0000
530 -28347.4374794161   0.000907193651 0.00023578  0.00000690  0.0016858 0.0000
531 -28347.4366307487   0.000848667416 0.00028709  0.00000845  0.0016872 0.0000
532 -28347.4369059496  -0.000275200877 0.00024045  0.00000714  0.0016927 0.0000
533 -28347.4377689121  -0.000862962552 0.00017267  0.00000517  0.0017027 0.0000
534 -28347.4381033693  -0.000334457178 0.00016752  0.00000497  0.0017131 0.0000
535 -28347.4376313359   0.000472033433 0.00021970  0.00000647  0.0017202 0.0000
536 -28347.4371552865   0.000476049354 0.00025157  0.00000741  0.0017250 0.0000
537 -28347.4372416516  -0.000086365035 0.00023373  0.00000692  0.0017312 0.0000
538 -28347.4376774190  -0.000435767412 0.00019979  0.00000594  0.0017398 0.0000
539 -28347.4379183120  -0.000240893012 0.00019401  0.00000575  0.0017488 0.0000
               *** Restarting incremental Fock matrix formation ***
                                   *** Resetting DIIS ***
540 -28347.4339771418   0.003941170184 0.00050568  0.00001479  0.0017563 0.0000
541 -28347.4343347459  -0.000357604149 0.00046791  0.00001374  0.0017590 0.0000
542 -28347.4364382993  -0.002103553386 0.00030824  0.00000920  0.0017690 0.0000
543 -28347.4398936350  -0.003455335722 0.00006484  0.00000203  0.0017865 0.0000
544 -28347.4428858752  -0.002992240185 0.00007381  0.00000211  0.0018036 0.0000
545 -28347.4382487469   0.004637128335 0.00034897  0.00001014  0.0018111 0.0000
546 -28347.4359830312   0.002265715691 0.00037343  0.00001099  0.0018050 0.0000
547 -28347.4367764962  -0.000793464980 0.00026475  0.00000790  0.0018125 0.0000
548 -28347.4384903580  -0.001713861795 0.00012829  0.00000393  0.0018267 0.0000
549 -28347.4391852524  -0.000694894406 0.00012109  0.00000361  0.0018407 0.0000
550 -28347.4381717040   0.001013548408 0.00025312  0.00000740  0.0018475 0.0000
551 -28347.4372332260   0.000938477981 0.00030793  0.00000905  0.0018493 0.0000
552 -28347.4375453465  -0.000312120497 0.00025703  0.00000763  0.0018554 0.0000
553 -28347.4385060652  -0.000960718731 0.00018377  0.00000550  0.0018662 0.0000
554 -28347.4388716958  -0.000365630523 0.00017875  0.00000530  0.0018775 0.0000
555 -28347.4383403991   0.000531296664 0.00023539  0.00000693  0.0018851 0.0000
556 -28347.4378120666   0.000528332461 0.00026946  0.00000794  0.0018904 0.0000
557 -28347.4379128422  -0.000100775560 0.00024971  0.00000740  0.0018973 0.0000
558 -28347.4383993646  -0.000486522396 0.00021291  0.00000633  0.0019065 0.0000
559 -28347.4386637630  -0.000264398386 0.00020696  0.00000613  0.0019163 0.0000
               *** Restarting incremental Fock matrix formation ***
                                   *** Resetting DIIS ***
560 -28347.4343122872   0.004351475785 0.00054091  0.00001584  0.0019244 0.0000
561 -28347.4347083603  -0.000396073145 0.00050095  0.00001470  0.0019280 0.0000
562 -28347.4370334720  -0.002325111687 0.00033144  0.00000982  0.0019388 0.0000
563 -28347.4408458212  -0.003812349209 0.00006807  0.00000214  0.0019576 0.0000
564 -28347.4441331892  -0.003287367996 0.00008116  0.00000227  0.0019756 0.0000
565 -28347.4390139318   0.005119257392 0.00037977  0.00001087  0.0019833 0.0000
566 -28347.4365170286   0.002496903260 0.00040860  0.00001178  0.0019776 0.0000
567 -28347.4373981138  -0.000881085256 0.00029016  0.00000844  0.0019860 0.0000
568 -28347.4392929542  -0.001894840367 0.00013952  0.00000417  0.0020012 0.0000
569 -28347.4400537471  -0.000760792911 0.00013276  0.00000384  0.0020160 0.0000
570 -28347.4389283179   0.001125429244 0.00028129  0.00000793  0.0020233 0.0000
571 -28347.4378939486   0.001034369252 0.00034396  0.00000970  0.0020255 0.0000
572 -28347.4382436971  -0.000349748472 0.00028763  0.00000815  0.0020323 0.0000
573 -28347.4393074474  -0.001063750322 0.00020542  0.00000586  0.0020440 0.0000
574 -28347.4397071230  -0.000399675591 0.00020097  0.00000566  0.0020560 0.0000
575 -28347.4391139451   0.000593177869 0.00026705  0.00000742  0.0020643 0.0000
576 -28347.4385297137   0.000584231446 0.00030730  0.00000850  0.0020701 0.0000
577 -28347.4386445104  -0.000114796683 0.00028550  0.00000791  0.0020776 0.0000
578 -28347.4391842345  -0.000539724126 0.00024380  0.00000675  0.0020876 0.0000
579 -28347.4394741643  -0.000289929816 0.00023811  0.00000655  0.0020981 0.0000
               *** Restarting incremental Fock matrix formation ***
                                   *** Resetting DIIS ***
580 -28347.4346935181   0.004780646221 0.00062963  0.00001696  0.0021069 0.0000
581 -28347.4351298984  -0.000436380305 0.00058743  0.00001574  0.0021115 0.0000
582 -28347.4376849453  -0.002555046904 0.00038787  0.00001049  0.0021233 0.0000
583 -28347.4418683775  -0.004183432236 0.00007528  0.00000226  0.0021433 0.0000
584 -28347.4454654284  -0.003597050843 0.00009592  0.00000245  0.0021620 0.0000
585 -28347.4398457322   0.005619696149 0.00044575  0.00001165  0.0021700 0.0000
586 -28347.4371071974   0.002738534811 0.00047946  0.00001262  0.0021647 0.0000
587 -28347.4380766468  -0.000969449433 0.00033975  0.00000903  0.0021740 0.0000
588 -28347.4401589936  -0.002082346808 0.00016226  0.00000444  0.0021902 0.0000
589 -28347.4409912056  -0.000832211990 0.00015472  0.00000410  0.0022059 0.0000
590 -28347.4397516452   0.001239560446 0.00032979  0.00000849  0.0022137 0.0000
591 -28347.4386155190   0.001136126193 0.00040341  0.00001040  0.0022163 0.0000
592 -28347.4390007538  -0.000385234769 0.00033682  0.00000872  0.0022239 0.0000
593 -28347.4401704404  -0.001169686660 0.00023976  0.00000625  0.0022364 0.0000
594 -28347.4406083351  -0.000437894712 0.00023465  0.00000604  0.0022492 0.0000
595 -28347.4399534184   0.000654916752 0.00031275  0.00000794  0.0022581 0.0000
596 -28347.4393099303   0.000643488125 0.00036016  0.00000911  0.0022645 0.0000
597 -28347.4394362794  -0.000126349114 0.00033427  0.00000846  0.0022727 0.0000
598 -28347.4400300069  -0.000593727545 0.00028491  0.00000722  0.0022835 0.0000
599 -28347.4403482131  -0.000318206188 0.00027819  0.00000700  0.0022947 0.0000
               *** Restarting incremental Fock matrix formation ***
                                   *** Resetting DIIS ***
600 -28347.4351275108   0.005220702267 0.00073725  0.00001816  0.0023041 0.0000
601 -28347.4356051400  -0.000477629186 0.00068767  0.00001684  0.0023100 0.0000
602 -28347.4383922911  -0.002787151025 0.00045359  0.00001123  0.0023227 0.0000
603 -28347.4429524936  -0.004560202560 0.00008735  0.00000241  0.0023438 0.0000
604 -28347.4468714136  -0.003918920032 0.00011306  0.00000265  0.0023632 0.0000
605 -28347.4407451651   0.006126248551 0.00052188  0.00001248  0.0023712 0.0000
606 -28347.4377583794   0.002986785694 0.00056143  0.00001352  0.0023668 0.0000
607 -28347.4388117797  -0.001053400305 0.00039775  0.00000967  0.0023769 0.0000
608 -28347.4410829390  -0.002271159334 0.00018929  0.00000474  0.0023941 0.0000
609 -28347.4419940587  -0.000911119696 0.00018004  0.00000437  0.0024105 0.0000
610 -28347.4406435186   0.001350540166 0.00038538  0.00000908  0.0024189 0.0000
611 -28347.4393998830   0.001243635586 0.00047214  0.00001114  0.0024220 0.0000
612 -28347.4398136894  -0.000413806363 0.00039434  0.00000935  0.0024303 0.0000
613 -28347.4410884273  -0.001274737915 0.00028015  0.00000669  0.0024436 0.0000
614 -28347.4415710519  -0.000482624633 0.00027356  0.00000645  0.0024571 0.0000
615 -28347.4408591440   0.000711907927 0.00036516  0.00000849  0.0024666 0.0000
616 -28347.4401533743   0.000705769628 0.00042121  0.00000976  0.0024737 0.0000
617 -28347.4402853287  -0.000131954341 0.00039116  0.00000907  0.0024826 0.0000
618 -28347.4409312018  -0.000645873155 0.00033300  0.00000773  0.0024941 0.0000
619 -28347.4412817188  -0.000350516922 0.00032457  0.00000748  0.0025060 0.0000
               *** Restarting incremental Fock matrix formation ***
                                   *** Resetting DIIS ***
620 -28347.4356220330   0.005659685801 0.00086112  0.00001944  0.0025161 0.0000
621 -28347.4361404400  -0.000518407047 0.00080317  0.00001803  0.0025235 0.0000
622 -28347.4391524755  -0.003012035508 0.00053008  0.00001203  0.0025370 0.0000
623 -28347.4440826911  -0.004930215568 0.00010246  0.00000260  0.0025590 0.0000
624 -28347.4483327266  -0.004250035530 0.00013278  0.00000285  0.0025789 0.0000
625 -28347.4417120487   0.006620677927 0.00060890  0.00001335  0.0025870 0.0000
626 -28347.4384758243   0.003236224384 0.00065556  0.00001448  0.0025836 0.0000
627 -28347.4396008284  -0.001125004099 0.00046574  0.00001039  0.0025947 0.0000
628 -28347.4420542431  -0.002453414734 0.00022196  0.00000511  0.0026126 0.0000
629 -28347.4430550089  -0.001000765718 0.00020913  0.00000466  0.0026296 0.0000
630 -28347.4416050404   0.001449968491 0.00044827  0.00000969  0.0026385 0.0000
631 -28347.4402481453   0.001356895049 0.00055101  0.00001193  0.0026424 0.0000
632 -28347.4406762264  -0.000428081119 0.00046173  0.00001005  0.0026514 0.0000
633 -28347.4420493469  -0.001373120478 0.00032806  0.00000719  0.0026654 0.0000
634 -28347.4425868471  -0.000537500215 0.00031836  0.00000689  0.0026795 0.0000
635 -28347.4418298977   0.000756949412 0.00042458  0.00000906  0.0026896 0.0000
636 -28347.4410593932   0.000770504521 0.00049121  0.00001045  0.0026974 0.0000
637 -28347.4411856571  -0.000126263927 0.00045754  0.00000975  0.0027070 0.0000
638 -28347.4418776602  -0.000692003094 0.00038948  0.00000831  0.0027191 0.0000
639 -28347.4422664460  -0.000388785789 0.00037809  0.00000801  0.0027317 0.0000
               *** Restarting incremental Fock matrix formation ***
                                   *** Resetting DIIS ***
640 -28347.4361861690   0.006080277013 0.00100252  0.00002080  0.0027424 0.0000
641 -28347.4367428307  -0.000556661675 0.00093532  0.00001929  0.0027514 0.0000
642 -28347.4399590749  -0.003216244273 0.00061913  0.00001292  0.0027658 0.0000
643 -28347.4452349021  -0.005275827174 0.00012220  0.00000286  0.0027885 0.0000
644 -28347.4498214841  -0.004586581956 0.00015513  0.00000305  0.0028085 0.0000
645 -28347.4427446268   0.007076857244 0.00070708  0.00001425  0.0028166 0.0000
646 -28347.4392653251   0.003479301773 0.00076260  0.00001549  0.0028146 0.0000
647 -28347.4404381153  -0.001172790260 0.00054572  0.00001120  0.0028265 0.0000
648 -28347.4430557708  -0.002617655457 0.00026240  0.00000556  0.0028449 0.0000
649 -28347.4441615751  -0.001105804324 0.00024244  0.00000498  0.0028624 0.0000
650 -28347.4426363075   0.001525267577 0.00051810  0.00001031  0.0028719 0.0000
651 -28347.4411605832   0.001475724275 0.00064062  0.00001276  0.0028765 0.0000
652 -28347.4415780017  -0.000417418454 0.00054096  0.00001084  0.0028863 0.0000
653 -28347.4430341677  -0.001456165985 0.00038564  0.00000779  0.0029007 0.0000
654 -28347.4436415413  -0.000607373593 0.00036981  0.00000738  0.0029153 0.0000
655 -28347.4428622426   0.000779298658 0.00049089  0.00000965  0.0029261 0.0000
656 -28347.4420259044   0.000836338255 0.00057071  0.00001118  0.0029346 0.0000
657 -28347.4421275868  -0.000101682395 0.00053507  0.00001050  0.0029447 0.0000
658 -28347.4428532644  -0.000725677681 0.00045631  0.00000897  0.0029574 0.0000
659 -28347.4432885336  -0.000435269198 0.00043979  0.00000859  0.0029705 0.0000
               *** Restarting incremental Fock matrix formation ***
                                   *** Resetting DIIS ***
660 -28347.4368306109   0.006457922696 0.00116223  0.00002222  0.0029818 0.0000
661 -28347.4374202010  -0.000589590025 0.00108517  0.00002064  0.0029927 0.0000
662 -28347.4408016437  -0.003381442733 0.00072294  0.00001391  0.0030077 0.0000
663 -28347.4463744425  -0.005572798796 0.00014911  0.00000321  0.0030307 0.0000
664 -28347.4512974159  -0.004922973407 0.00017987  0.00000326  0.0030506 0.0000
665 -28347.4438389813   0.007458434604 0.00081593  0.00001516  0.0030586 0.0000
666 -28347.4401334516   0.003705529685 0.00088277  0.00001655  0.0030584 0.0000
667 -28347.4413145880  -0.001181136384 0.00064028  0.00001213  0.0030710 0.0000
668 -28347.4440620787  -0.002747490733 0.00031394  0.00000613  0.0030896 0.0000
669 -28347.4452938109  -0.001231732149 0.00028069  0.00000533  0.0031072 0.0000
670 -28347.4437357422   0.001558068627 0.00059360  0.00001091  0.0031173 0.0000
671 -28347.4421369498   0.001598792416 0.00074107  0.00001364  0.0031228 0.0000
672 -28347.4425045121  -0.000367562221 0.00063447  0.00001174  0.0031332 0.0000
673 -28347.4440154298  -0.001510917762 0.00045607  0.00000851  0.0031479 0.0000
674 -28347.4447127466  -0.000697316824 0.00042901  0.00000792  0.0031628 0.0000
675 -28347.4439492221   0.000763524520 0.00056335  0.00001024  0.0031741 0.0000
676 -28347.4430495392   0.000899682942 0.00065972  0.00001195  0.0031833 0.0000
677 -28347.4430979823  -0.000048443075 0.00062571  0.00001136  0.0031940 0.0000
678 -28347.4438348962  -0.000736913978 0.00053622  0.00000975  0.0032070 0.0000
679 -28347.4443262642  -0.000491367962 0.00051111  0.00000924  0.0032204 0.0000
               *** Restarting incremental Fock matrix formation ***
                                   *** Resetting DIIS ***
680 -28347.4375680416   0.006758222622 0.00134016  0.00002371  0.0032322 0.0000
681 -28347.4381816425  -0.000613600881 0.00125316  0.00002207  0.0032450 0.0000
682 -28347.4416655216  -0.003483879122 0.00084416  0.00001505  0.0032604 0.0000
683 -28347.4474543016  -0.005788779992 0.00018724  0.00000371  0.0032834 0.0000
684 -28347.4527039947  -0.005249693153 0.00020607  0.00000345  0.0033026 0.0000
685 -28347.4449880437   0.007715951026 0.00093364  0.00001606  0.0033143 0.0000
686 -28347.4410879277   0.003900116011 0.00101535  0.00001764  0.0033123 0.0000
687 -28347.4422181049  -0.001130177181 0.00075268  0.00001321  0.0033256 0.0000
688 -28347.4450378575  -0.002819752652 0.00038175  0.00000690  0.0033438 0.0000
689 -28347.4464206522  -0.001382794650 0.00032522  0.00000574  0.0033613 0.0000
690 -28347.4448985273   0.001522124843 0.00067216  0.00001146  0.0033719 0.0000
691 -28347.4431773493   0.001721177981 0.00085139  0.00001453  0.0033784 0.0000
692 -28347.4434385333  -0.000261183970 0.00074512  0.00001279  0.0033892 0.0000
693 -28347.4449565617  -0.001518028432 0.00054414  0.00000942  0.0034038 0.0000
694 -28347.4457661585  -0.000809596750 0.00049796  0.00000854  0.0034187 0.0000
695 -28347.4450775898   0.000688568700 0.00064047  0.00001082  0.0034305 0.0000
[...]
      dxz     :     0.006632
      dyz     :     0.006893
      dx2y2   :     0.005603
      dxy     :     0.005607
      f0      :     0.000330  f :     0.002260
      f+1     :     0.000331
      f-1     :     0.000349
      f+2     :     0.000321
      f-2     :     0.000330
      f+3     :     0.000300
      f-3     :     0.000299
  2 F s       :     4.000853  s :     4.000853
      pz      :     1.830675  p :     5.583228
      px      :     1.880734
      py      :     1.871819
      dz2     :     0.007328  d :     0.032395
      dxz     :     0.006760
      dyz     :     0.007055
      dx2y2   :     0.005584
      dxy     :     0.005668
      f0      :     0.000342  f :     0.002282
      f+1     :     0.000333
      f-1     :     0.000350
      f+2     :     0.000323
      f-2     :     0.000332
      f+3     :     0.000301
      f-3     :     0.000299
  3 F s       :     4.000833  s :     4.000833
      pz      :     1.890807  p :     5.583269
      px      :     1.880794
      py      :     1.811668
      dz2     :     0.005675  d :     0.032393
      dxz     :     0.005154
      dyz     :     0.007016
      dx2y2   :     0.007276
      dxy     :     0.007272
      f0      :     0.000312  f :     0.002282
      f+1     :     0.000298
      f-1     :     0.000332
      f+2     :     0.000321
      f-2     :     0.000312
      f+3     :     0.000357
      f-3     :     0.000350
  4 F s       :     4.000835  s :     4.000835
      pz      :     1.890789  p :     5.583200
      px      :     1.802319
      py      :     1.890091
      dz2     :     0.005676  d :     0.032396
      dxz     :     0.007225
      dyz     :     0.004945
      dx2y2   :     0.007344
      dxy     :     0.007205
      f0      :     0.000312  f :     0.002282
      f+1     :     0.000337
      f-1     :     0.000293
      f+2     :     0.000327
      f-2     :     0.000306
      f+3     :     0.000363
      f-3     :     0.000344


                     *******************************
                     * LOEWDIN POPULATION ANALYSIS *
                     *******************************

----------------------
LOEWDIN ATOMIC CHARGES
----------------------
   0 U :    0.974454
   1 F :   -0.263429
   2 F :   -0.236987
   3 F :   -0.237087
   4 F :   -0.236951

-------------------------------
LOEWDIN REDUCED ORBITAL CHARGES
-------------------------------
  0 U s       :    12.080781  s :    12.080781
      pz      :    10.017852  p :    30.043475
      px      :    10.012228
      py      :    10.013394
      dz2     :     6.371975  d :    31.709592
      dxz     :     6.299144
      dyz     :     6.365610
      dx2y2   :     6.383908
      dxy     :     6.288954
      f0      :     2.274160  f :    17.191699
      f+1     :     2.267476
      f-1     :     2.386307
      f+2     :     2.318561
      f-2     :     3.191469
      f+3     :     2.539379
      f-3     :     2.214347
  1 F s       :     3.746330  s :     3.746330
      pz      :     1.829849  p :     5.475900
      px      :     1.822259
      py      :     1.823792
      dz2     :     0.008807  d :     0.038680
      dxz     :     0.008133
      dyz     :     0.009990
      dx2y2   :     0.005644
      dxy     :     0.006106
      f0      :     0.000352  f :     0.002518
      f+1     :     0.000385
      f-1     :     0.000446
      f+2     :     0.000341
      f-2     :     0.000386
      f+3     :     0.000307
      f-3     :     0.000302
  2 F s       :     3.738664  s :     3.738664
      pz      :     1.821212  p :     5.456032
      px      :     1.817159
      py      :     1.817661
      dz2     :     0.009399  d :     0.039727
      dxz     :     0.008305
      dyz     :     0.010210
      dx2y2   :     0.005629
      dxy     :     0.006184
      f0      :     0.000380  f :     0.002564
      f+1     :     0.000389
      f-1     :     0.000449
      f+2     :     0.000344
      f-2     :     0.000388
      f+3     :     0.000311
      f-3     :     0.000302
  3 F s       :     3.738693  s :     3.738693
      pz      :     1.817325  p :     5.456106
      px      :     1.817203
      py      :     1.821578
      dz2     :     0.007528  d :     0.039724
      dxz     :     0.005195
      dyz     :     0.006981
      dx2y2   :     0.010735
      dxy     :     0.009286
      f0      :     0.000324  f :     0.002564
      f+1     :     0.000308
      f-1     :     0.000402
      f+2     :     0.000340
      f-2     :     0.000322
      f+3     :     0.000457
      f-3     :     0.000410
  4 F s       :     3.738657  s :     3.738657
      pz      :     1.817287  p :     5.455999
      px      :     1.821809
      py      :     1.816903
      dz2     :     0.007530  d :     0.039731
      dxz     :     0.007139
      dyz     :     0.005037
      dx2y2   :     0.012920
      dxy     :     0.007105
      f0      :     0.000324  f :     0.002564
      f+1     :     0.000414
      f-1     :     0.000295
      f+2     :     0.000347
      f-2     :     0.000316
      f+3     :     0.000495
      f-3     :     0.000373


                      *****************************
                      * MAYER POPULATION ANALYSIS *
                      *****************************

  NA   - Mulliken gross atomic population
  ZA   - Total nuclear charge
  QA   - Mulliken gross atomic charge
  VA   - Mayer's total valence
  BVA  - Mayer's bonded valence
  FA   - Mayer's free valence

  ATOM       NA         ZA         QA         VA         BVA        FA
  0 U     89.5146    92.0000     2.4854     3.1784     2.1021     1.0763
  1 F      9.6291     9.0000    -0.6291     0.9375     0.5175     0.4200
  2 F      9.6188     9.0000    -0.6188     0.9534     0.5352     0.4182
  3 F      9.6188     9.0000    -0.6188     0.9534     0.5351     0.4182
  4 F      9.6187     9.0000    -0.6187     0.9534     0.5352     0.4182

  Mayer bond orders larger than 0.1
B(  0-U ,  1-F ) :   0.5131 B(  0-U ,  2-F ) :   0.5297 B(  0-U ,  3-F ) :   0.5296 
B(  0-U ,  4-F ) :   0.5297 


                *******************************************
                * RELAXED MP2 DENSITY POPULATION ANALYSIS *
                *******************************************

------------------------------------------------------------------------------
                           ORCA POPULATION ANALYSIS
------------------------------------------------------------------------------
Input electron density              ... /home/nikolayandreadi_2125/_scratch/MP2/UF4.pmp2re
BaseName (.gbw .S,...)              ... /home/nikolayandreadi_2125/_scratch/MP2/UF4

                    ********************************
                    * MULLIKEN POPULATION ANALYSIS *
                    ********************************

-----------------------
MULLIKEN ATOMIC CHARGES
-----------------------
   0 U :    2.097789
   1 F :   -0.533057
   2 F :   -0.521584
   3 F :   -0.521612
   4 F :   -0.521537
Sum of atomic charges:   -0.0000000

--------------------------------
MULLIKEN REDUCED ORBITAL CHARGES
--------------------------------
  0 U s       :    12.078801  s :    12.078801
      pz      :     9.985909  p :    29.945263
      px      :     9.978962
      py      :     9.980392
      dz2     :     6.273432  d :    31.304142
      dxz     :     6.249738
      dyz     :     6.284731
      dx2y2   :     6.259999
      dxy     :     6.236241
      f0      :     2.194344  f :    16.574004
      f+1     :     2.178843
      f-1     :     2.272814
      f+2     :     2.241124
      f-2     :     3.119621
      f+3     :     2.432039
      f-3     :     2.135219
  1 F s       :     3.995326  s :     3.995326
      pz      :     1.811171  p :     5.503326
      px      :     1.849992
      py      :     1.842163
      dz2     :     0.007208  d :     0.032133
      dxz     :     0.006692
      dyz     :     0.006989
      dx2y2   :     0.005612
      dxy     :     0.005632
      f0      :     0.000332  f :     0.002272
      f+1     :     0.000334
      f-1     :     0.000353
      f+2     :     0.000323
      f-2     :     0.000332
      f+3     :     0.000300
      f-3     :     0.000299
  2 F s       :     3.997498  s :     3.997498
      pz      :     1.801628  p :     5.489154
      px      :     1.847760
      py      :     1.839765
      dz2     :     0.007421  d :     0.032637
      dxz     :     0.006800
      dyz     :     0.007107
      dx2y2   :     0.005590
      dxy     :     0.005718
      f0      :     0.000347  f :     0.002296
      f+1     :     0.000335
      f-1     :     0.000353
      f+2     :     0.000325
      f-2     :     0.000334
      f+3     :     0.000302
      f-3     :     0.000299
  3 F s       :     3.997479  s :     3.997479
      pz      :     1.856750  p :     5.489202
      px      :     1.847832
      py      :     1.784620
      dz2     :     0.005704  d :     0.032635
      dxz     :     0.005203
      dyz     :     0.007074
      dx2y2   :     0.007340
      dxy     :     0.007313
      f0      :     0.000313  f :     0.002296
      f+1     :     0.000298
      f-1     :     0.000334
      f+2     :     0.000324
      f-2     :     0.000313
      f+3     :     0.000360
      f-3     :     0.000353
  4 F s       :     3.997479  s :     3.997479
      pz      :     1.856731  p :     5.489124
      px      :     1.776247
      py      :     1.856146
      dz2     :     0.005706  d :     0.032638
      dxz     :     0.007265
      dyz     :     0.005012
      dx2y2   :     0.007420
      dxy     :     0.007235
      f0      :     0.000313  f :     0.002296
      f+1     :     0.000339
      f-1     :     0.000293
      f+2     :     0.000329
      f-2     :     0.000309
      f+3     :     0.000367
      f-3     :     0.000347


                     *******************************
                     * LOEWDIN POPULATION ANALYSIS *
                     *******************************

----------------------
LOEWDIN ATOMIC CHARGES
----------------------
   0 U :    0.675044
   1 F :   -0.189785
   2 F :   -0.161741
   3 F :   -0.161829
   4 F :   -0.161689

-------------------------------
LOEWDIN REDUCED ORBITAL CHARGES
-------------------------------
  0 U s       :    12.092667  s :    12.092667
      pz      :    10.025712  p :    30.067283
      px      :    10.020217
      py      :    10.021355
      dz2     :     6.411811  d :    31.917504
      dxz     :     6.347104
      dyz     :     6.412385
      dx2y2   :     6.413482
      dxy     :     6.332723
      f0      :     2.292856  f :    17.247501
      f+1     :     2.271920
      f-1     :     2.389925
      f+2     :     2.336675
      f-2     :     3.185814
      f+3     :     2.539286
      f-3     :     2.231027
  1 F s       :     3.745714  s :     3.745714
      pz      :     1.808662  p :     5.402192
      px      :     1.795447
      py      :     1.798084
      dz2     :     0.008992  d :     0.039339
      dxz     :     0.008284
      dyz     :     0.010214
      dx2y2   :     0.005685
      dxy     :     0.006165
      f0      :     0.000356  f :     0.002541
      f+1     :     0.000389
      f-1     :     0.000452
      f+2     :     0.000344
      f-2     :     0.000390
      f+3     :     0.000308
      f-3     :     0.000302
  2 F s       :     3.738315  s :     3.738315
      pz      :     1.799466  p :     5.380359
      px      :     1.789626
      py      :     1.791267
      dz2     :     0.009630  d :     0.040475
      dxz     :     0.008450
      dyz     :     0.010427
      dx2y2   :     0.005667
      dxy     :     0.006302
      f0      :     0.000388  f :     0.002592
      f+1     :     0.000393
      f-1     :     0.000455
      f+2     :     0.000347
      f-2     :     0.000393
      f+3     :     0.000313
      f-3     :     0.000303
  3 F s       :     3.738343  s :     3.738343
      pz      :     1.788428  p :     5.380425
      px      :     1.789677
      py      :     1.802320
      dz2     :     0.007636  d :     0.040470
      dxz     :     0.005281
      dyz     :     0.007117
      dx2y2   :     0.010972
      dxy     :     0.009464
      f0      :     0.000326  f :     0.002591
      f+1     :     0.000309
      f-1     :     0.000406
      f+2     :     0.000345
      f-2     :     0.000326
      f+3     :     0.000464
      f-3     :     0.000416
  4 F s       :     3.738308  s :     3.738308
      pz      :     1.788390  p :     5.380312
      px      :     1.803765
      py      :     1.788157
      dz2     :     0.007640  d :     0.040478
      dxz     :     0.007251
      dyz     :     0.005146
      dx2y2   :     0.013231
      dxy     :     0.007209
      f0      :     0.000326  f :     0.002592
      f+1     :     0.000419
      f-1     :     0.000296
      f+2     :     0.000350
      f-2     :     0.000321
      f+3     :     0.000504
      f-3     :     0.000377


                      *****************************
                      * MAYER POPULATION ANALYSIS *
                      *****************************

  NA   - Mulliken gross atomic population
  ZA   - Total nuclear charge
  QA   - Mulliken gross atomic charge
  VA   - Mayer's total valence
  BVA  - Mayer's bonded valence
  FA   - Mayer's free valence

  ATOM       NA         ZA         QA         VA         BVA        FA
  0 U     89.9022    92.0000     2.0978     3.8336     2.8300     1.0036
  1 F      9.5331     9.0000    -0.5331     1.1102     0.7041     0.4061
  2 F      9.5216     9.0000    -0.5216     1.1271     0.7231     0.4040
  3 F      9.5216     9.0000    -0.5216     1.1271     0.7231     0.4040
  4 F      9.5215     9.0000    -0.5215     1.1272     0.7232     0.4040

  Mayer bond orders larger than 0.1
B(  0-U ,  1-F ) :   0.6940 B(  0-U ,  2-F ) :   0.7120 B(  0-U ,  3-F ) :   0.7120 
B(  0-U ,  4-F ) :   0.7120 


----------------------------------
MP2 DERIVATIVE INTEGRAL GENERATION
----------------------------------


Input Wavefunction Amplitudes       ... /home/nikolayandreadi_2125/_scratch/MP2/UF4.mp2tsaa.tmp.proc19
Input Correlated Electron Density   ... /home/nikolayandreadi_2125/_scratch/MP2/UF4.pmp2re
Input Energy Weighted Density       ... /home/nikolayandreadi_2125/_scratch/MP2/UF4.wmp2.tmp
Input SCF Electron Density          ... /home/nikolayandreadi_2125/_scratch/MP2/UF4.scfp.tmp

One-Electron Terms    ...
                        ... One-Electron Terms done
Prescreening matrices              ... done

Batch handling in the gradient evaluation:
Memory available                      ... 31500.0 MB
Memory per occupied orbital in Q2     ...   16.3 MB
Memory per occupied orbital in Q3     ...    0.1 MB
Total memory requirement per |i>      ...   16.4 MB
Max. Number of orbitals possible      ...   1915
Number of orbitals treated per batch  ...     26
Number of batches to be done          ...      1
Batch   0: i=   38 ...    63

---------------------------------------
MP2 TOTAL ENERGY:   -28349.303881650 Eh
---------------------------------------

-----------------------------------
NORM OF THE MP2 GRADIENT:  0.000065
-----------------------------------

-------------------------   --------------------
FINAL SINGLE POINT ENERGY    -28349.303881649816
-------------------------   --------------------

                                *** OPTIMIZATION RUN DONE ***

                            ***************************************
                            *     ORCA property calculations      *
                            ***************************************

                                    ---------------------
                                    Active property flags
                                    ---------------------
   (+) Dipole Moment


------------------------------------------------------------------------------
                       ORCA ELECTRIC PROPERTIES CALCULATION
------------------------------------------------------------------------------

Dipole Moment Calculation                       ... on
Quadrupole Moment Calculation                   ... off
Polarizability Calculation                      ... off
GBWName                                         ... /home/nikolayandreadi_2125/_scratch/MP2/UF4.gbw
Electron density file                           ... /home/nikolayandreadi_2125/_scratch/MP2/UF4.scfp.tmp
The origin for moment calculation is the CENTER OF MASS  = (-0.004167, -0.006326  0.011845)

-------------
DIPOLE MOMENT
-------------
                                X             Y             Z
Electronic contribution:     -0.09434      -0.13772       0.25078
Nuclear contribution   :      0.03752       0.05696      -0.10666
                        -----------------------------------------
Total Dipole Moment    :     -0.05682      -0.08076       0.14412
                        -----------------------------------------
Magnitude (a.u.)       :      0.17470
Magnitude (Debye)      :      0.44405


                         *** MP2 UNRELAXED DENSITY ***

------------------------------------------------------------------------------
                       ORCA ELECTRIC PROPERTIES CALCULATION
------------------------------------------------------------------------------

Dipole Moment Calculation                       ... on
Quadrupole Moment Calculation                   ... off
Polarizability Calculation                      ... off
GBWName                                         ... /home/nikolayandreadi_2125/_scratch/MP2/UF4.gbw
Electron density file                           ... /home/nikolayandreadi_2125/_scratch/MP2/UF4.pmp2ur
The origin for moment calculation is the CENTER OF MASS  = (-0.004167, -0.006326  0.011845)

-------------
DIPOLE MOMENT
-------------
                                X             Y             Z
Electronic contribution:     -0.09288      -0.13564       0.24705
Nuclear contribution   :      0.03752       0.05696      -0.10666
                        -----------------------------------------
Total Dipole Moment    :     -0.05536      -0.07868       0.14039
                        -----------------------------------------
Magnitude (a.u.)       :      0.17019
Magnitude (Debye)      :      0.43259


                           *** MP2 RELAXED DENSITY ***

------------------------------------------------------------------------------
                       ORCA ELECTRIC PROPERTIES CALCULATION
------------------------------------------------------------------------------

Dipole Moment Calculation                       ... on
Quadrupole Moment Calculation                   ... off
Polarizability Calculation                      ... off
GBWName                                         ... /home/nikolayandreadi_2125/_scratch/MP2/UF4.gbw
Electron density file                           ... /home/nikolayandreadi_2125/_scratch/MP2/UF4.pmp2re
The origin for moment calculation is the CENTER OF MASS  = (-0.004167, -0.006326  0.011845)

-------------
DIPOLE MOMENT
-------------
                                X             Y             Z
Electronic contribution:     -0.10709      -0.15536       0.28021
Nuclear contribution   :      0.03752       0.05696      -0.10666
                        -----------------------------------------
Total Dipole Moment    :     -0.06957      -0.09840       0.17356
                        -----------------------------------------
Magnitude (a.u.)       :      0.21129
Magnitude (Debye)      :      0.53705


Timings for individual modules:

Sum of individual times         ...     6008.874 sec (= 100.148 min)
GTO integral calculation        ...       15.027 sec (=   0.250 min)   0.3 %
Relativistic integrals          ...        4.754 sec (=   0.079 min)   0.1 %
SCF iterations                  ...     2976.016 sec (=  49.600 min)  49.5 %
MP2 module                      ...     3012.601 sec (=  50.210 min)  50.1 %
Geometry relaxation             ...        0.476 sec (=   0.008 min)   0.0 %
                             ****ORCA TERMINATED NORMALLY****
TOTAL RUN TIME: 0 days 1 hours 40 minutes 12 seconds 885 msec
