
                                 *****************
                                 * O   R   C   A *
                                 *****************

           --- An Ab Initio, DFT and Semiempirical electronic structure package ---

                  #######################################################
                  #                        -***-                        #
                  #  Department of molecular theory and spectroscopy    #
                  #              Directorship: Frank Neese              #
                  # Max Planck Institute for Chemical Energy Conversion #
                  #                  D-45470 Muelheim/Ruhr              #
                  #                       Germany                       #
                  #                                                     #
                  #                  All rights reserved                #
                  #                        -***-                        #
                  #######################################################


                         Program Version 4.0.1.2 - RELEASE -


 With contributions from (in alphabetic order):
   Daniel Aravena         : Magnetic Properties
   Michael Atanasov       : Ab Initio Ligand Field Theory
   Ute Becker             : Parallelization
   Martin Brehm           : Molecular dynamics
   Dmytro Bykov           : SCF Hessian
   Vijay G. Chilkuri      : MRCI spin determinant printing
   Dipayan Datta          : RHF DLPNO-CCSD density
   Achintya Kumar Dutta   : EOM-CC, STEOM-CC
   Dmitry Ganyushin       : Spin-Orbit,Spin-Spin,Magnetic field MRCI
   Yang Guo               : DLPNO-NEVPT2, CIM, IAO-localization
   Andreas Hansen         : Spin unrestricted coupled pair/coupled cluster methods
   Lee Huntington         : MR-EOM, pCC
   Robert Izsak           : Overlap fitted RIJCOSX, COSX-SCS-MP3, EOM
   Christian Kollmar      : KDIIS, OOCD, Brueckner-CCSD(T), CCSD density
   Simone Kossmann        : Meta GGA functionals, TD-DFT gradient, OOMP2, MP2 Hessian
   Martin Krupicka        : AUTO-CI
   Dagmar Lenk            : GEPOL surface
   Dimitrios Liakos       : Extrapolation schemes; parallel MDCI
   Dimitrios Manganas     : ROCIS; embedding schemes
   Dimitrios Pantazis     : SARC Basis sets
   Taras Petrenko         : DFT Hessian,TD-DFT gradient, ASA, ECA, R-Raman, ABS, FL, XAS/XES, NRVS
   Peter Pinski           : DLPNO-MP2
   Christoph Reimann      : Effective Core Potentials
   Marius Retegan         : Local ZFS, SOC
   Christoph Riplinger    : Optimizer, TS searches, QM/MM, DLPNO-CCSD(T), (RO)-DLPNO pert. Triples
   Tobias Risthaus        : Range-separated hybrids, TD-DFT gradient, RPA, STAB
   Michael Roemelt        : Restricted open shell CIS
   Masaaki Saitow         : Open-shell DLPNO
   Barbara Sandhoefer     : DKH picture change effects
   Kantharuban Sivalingam : CASSCF convergence, NEVPT2, FIC-MRCI
   Georgi Stoychev        : AutoAux
   Boris Wezisla          : Elementary symmetry handling
   Frank Wennmohs         : Technical directorship


 We gratefully acknowledge several colleagues who have allowed us to
 interface, adapt or use parts of their codes:
   Stefan Grimme, W. Hujo, H. Kruse,             : VdW corrections, initial TS optimization,
                  C. Bannwarth                     DFT functionals, gCP, sTDA/sTD-DF
   Ed Valeev                                     : LibInt (2-el integral package), F12 methods
   Garnet Chan, S. Sharma, J. Yang, R. Olivares  : DMRG
   Ulf Ekstrom                                   : XCFun DFT Library
   Mihaly Kallay                                 : mrcc  (arbitrary order and MRCC methods)
   Andreas Klamt, Michael Diedenhofen            : otool_cosmo (COSMO solvation model)
   Jiri Pittner, Ondrej Demel                    : Mk-CCSD
   Frank Weinhold                                : gennbo (NPA and NBO analysis)
   Christopher J. Cramer and Donald G. Truhlar   : smd solvation model


 Your calculation uses the libint2 library for the computation of 2-el integrals
 For citations please refer to: http://libint.valeyev.net

 This ORCA versions uses:
   CBLAS   interface :  Fast vector & matrix operations
   LAPACKE interface :  Fast linear algebra routines
   SCALAPACK package :  Parallel linear algebra routines


Your calculation utilizes the basis: DKH-def2-TZVP
   Exponents from def2-TZVP [F. Weigend and R. Ahlrichs, Phys. Chem. Chem. Phys. 7, 3297 (2005)],
   recontracted for DKH2 by D. A. Pantazis.

Your calculation utilizes the auxiliary basis: SARC/J 
   decontracted def2/J up to Kr:
   F. Weigend, Phys. Chem. Chem. Phys. 8, 1057 (2006)
   and SARC auxiliary basis sets beyond Kr:
   D. A. Pantazis and F. Neese, J. Chem. Theory Comput. 5, 2229 (2009).
   D. A. Pantazis, X. Y. Chen, C. R. Landis and F. Neese, J. Chem. Theory Comput. 4, 908 (2008).
   D. A. Pantazis and F. Neese, Theor. Chem. Acc. 131, 1292 (2012).
   D. A. Pantazis and F. Neese, J. Chem. Theory Comput. 7, 677 (2011).

================================================================================
                                        WARNINGS
                       Please study these warnings very carefully!
================================================================================

Warning: TCutStore was < 0. Adjusted to Thresh (uncritical)

WARNING: your system is open-shell and RHF/RKS was chosen
  ===> : WILL SWITCH to UHF/UKS


WARNING: In scalar relativistic gradient/hessian runs we need the one-center approximation
  ===> : %rel OneCenter is turned on

WARNING: The frozen-core approximation for MP2-gradient calculations is turned on by default.

WARNING: Geometry Optimization
  ===> : Switching off AutoStart
         For restart on a previous wavefunction, please use MOREAD

WARNING: Post HF methods need fully converged wavefunctions
  ===> : Setting SCFConvForced true
         You can overwrite this default with %scf ConvForced false 


INFO   : the flag for use of LIBINT has been found!

================================================================================
                                       INPUT FILE
================================================================================
NAME = /home/nikolayandreadi_2125/_scratch/MP2/UF5.inp
|  1> !Opt MP2 DKH-def2-TZVP DKH SARC/J SlowConv
|  2> 
|  3> %pal
|  4> nproc 42
|  5> end
|  6> 
|  7> %maxcore 13500
|  8> 
|  9> %basis
| 10> newgto U "SARC-DKH-TZVP" end
| 11> end
| 12> 
| 13> %scf
| 14> MaxIter 5000
| 15> end
| 16> 
| 17> %method
| 18> Z_MaxIter 5000
| 19> end
| 20> 
| 21> %geom
| 22>     MaxIter 200
| 23> end
| 24> 
| 25> * xyz 0 2
| 26>   U      0.068473    0.001922   -0.000484
| 27>   F      0.181508   -0.000520    1.998113
| 28>   F      0.181563   -0.000530   -1.999069
| 29>   F     -1.271785   -1.516246    0.000832
| 30>   F      2.115107   -0.001880   -0.000231
| 31>   F     -1.274866    1.517254    0.000839
| 32> **                         ****END OF INPUT****
================================================================================

                       *****************************
                       * Geometry Optimization Run *
                       *****************************

Geometry optimization settings:
Update method            Update   .... BFGS
Choice of coordinates    CoordSys .... Redundant Internals
Initial Hessian          InHess   .... Almoef's Model

Convergence Tolerances:
Energy Change            TolE     ....  5.0000e-06 Eh
Max. Gradient            TolMAXG  ....  3.0000e-04 Eh/bohr
RMS Gradient             TolRMSG  ....  1.0000e-04 Eh/bohr
Max. Displacement        TolMAXD  ....  4.0000e-03 bohr
RMS Displacement         TolRMSD  ....  2.0000e-03 bohr

------------------------------------------------------------------------------
                        ORCA OPTIMIZATION COORDINATE SETUP
------------------------------------------------------------------------------

The optimization will be done in new redundant internal coordinates
Making redundant internal coordinates   ...  (new redundants) done
Evaluating the initial hessian          ...  (Almloef) done
Evaluating the coordinates              ...  done
Calculating the B-matrix                .... done
Calculating the G-matrix                .... done
Diagonalizing the G-matrix              .... done
The first mode is                       ....    3
The number of degrees of freedom        ....   12

    -----------------------------------------------------------------
                    Redundant Internal Coordinates


    -----------------------------------------------------------------
         Definition                    Initial Value    Approx d2E/dq
    -----------------------------------------------------------------
      1. B(F   1,U   0)                  2.0018         0.184665   
      2. B(F   2,U   0)                  2.0018         0.184671   
      3. B(F   3,U   0)                  2.0251         0.169497   
      4. B(F   4,U   0)                  2.0466         0.156616   
      5. B(F   5,U   0)                  2.0250         0.169548   
      6. A(F   1,U   0,F   3)           92.0520         0.314066   
      7. A(F   2,U   0,F   3)           92.1273         0.314067   
      8. A(F   1,U   0,F   4)           86.7558         0.310076   
      9. A(F   2,U   0,F   4)           86.7683         0.310077   
     10. A(F   3,U   0,F   4)          131.3320         0.305828   
     11. A(F   1,U   0,F   5)           92.1616         0.314081   
     12. A(F   2,U   0,F   5)           92.2377         0.314083   
     13. A(F   3,U   0,F   5)           97.0046         0.309757   
     14. A(F   4,U   0,F   5)          131.6633         0.305843   
     15. A(F   1,U   0,F   2)          173.5228         0.318476   
    -----------------------------------------------------------------

Number of atoms                         .... 6
Number of degrees of freedom            .... 15

         *************************************************************
         *                GEOMETRY OPTIMIZATION CYCLE   1            *
         *************************************************************
---------------------------------
CARTESIAN COORDINATES (ANGSTROEM)
---------------------------------
  U      0.068473    0.001922   -0.000484
  F      0.181508   -0.000520    1.998113
  F      0.181563   -0.000530   -1.999069
  F     -1.271785   -1.516246    0.000832
  F      2.115107   -0.001880   -0.000231
  F     -1.274866    1.517254    0.000839

----------------------------
CARTESIAN COORDINATES (A.U.)
----------------------------
  NO LB      ZA    FRAG     MASS         X           Y           Z
   0 U    92.0000    0   238.029    0.129395    0.003632   -0.000915
   1 F     9.0000    0    18.998    0.343000   -0.000983    3.775886
   2 F     9.0000    0    18.998    0.343104   -0.001002   -3.777693
   3 F     9.0000    0    18.998   -2.403325   -2.865290    0.001572
   4 F     9.0000    0    18.998    3.996973   -0.003553   -0.000437
   5 F     9.0000    0    18.998   -2.409148    2.867195    0.001585

--------------------------------
INTERNAL COORDINATES (ANGSTROEM)
--------------------------------
 U      0   0   0     0.000000000000     0.00000000     0.00000000
 F      1   0   0     2.001792407568     0.00000000     0.00000000
 F      1   2   0     2.001783545399   173.52281783     0.00000000
 F      1   2   3     2.025124024509    92.05204755   130.15510549
 F      1   2   4     2.046637547093    86.75575630   228.70965920
 F      1   2   5     2.025041355003    92.16163308   228.38252437

---------------------------
INTERNAL COORDINATES (A.U.)
---------------------------
 U      0   0   0     0.000000000000     0.00000000     0.00000000
 F      1   0   0     3.782839427267     0.00000000     0.00000000
 F      1   2   0     3.782822680193   173.52281783     0.00000000
 F      1   2   3     3.826929793547    92.05204755   130.15510549
 F      1   2   4     3.867584459405    86.75575630   228.70965920
 F      1   2   5     3.826773570821    92.16163308   228.38252437

---------------------
BASIS SET INFORMATION
---------------------
There are 2 groups of distinct atoms

 Group   1 Type U   : 29s20p16d12f contracted to 21s13p10d7f pattern {911111111111111111111/8111111111111/7111111111/6111111}
 Group   2 Type F   : 11s6p2d1f contracted to 6s3p2d1f pattern {611111/411/11/1}

Atom   0U    basis set group =>   1
Atom   1F    basis set group =>   2
Atom   2F    basis set group =>   2
Atom   3F    basis set group =>   2
Atom   4F    basis set group =>   2
Atom   5F    basis set group =>   2

INFORMATION: There is an auxiliary basis set but the global RI flag is NOT set

-------------------------------
AUXILIARY BASIS SET INFORMATION
-------------------------------
There are 2 groups of distinct atoms

 Group   1 Type U   : 33s10p8d6f4g2h1i contracted to 33s10p8d6f4g2h1i pattern {111111111111111111111111111111111/1111111111/11111111/111111/1111/11/1}
 Group   2 Type F   : 12s5p4d2f1g contracted to 12s5p4d2f1g pattern {111111111111/11111/1111/11/1}

Atom   0U    basis set group =>   1
Atom   1F    basis set group =>   2
Atom   2F    basis set group =>   2
Atom   3F    basis set group =>   2
Atom   4F    basis set group =>   2
Atom   5F    basis set group =>   2


           ************************************************************
           *        Program running with 42 parallel MPI-processes    *
           *              working on a common directory               *
           ************************************************************
------------------------------------------------------------------------------
                           ORCA GTO INTEGRAL CALCULATION
------------------------------------------------------------------------------

                         BASIS SET STATISTICS AND STARTUP INFO

 # of primitive gaussian shells          ...  177
 # of primitive gaussian functions       ...  483
 # of contracted shells                  ...  111
 # of contracted basis functions         ...  319
 Highest angular momentum                ...    3
 Maximum contraction depth               ...    9
 Integral package used                   ... LIBINT
 Integral threshhold            Thresh   ...  2.500e-11
 Primitive cut-off              TCut     ...  2.500e-12


------------------------------ INTEGRAL EVALUATION ----------------------------


 * One electron integrals 
 Pre-screening matrix                    ... done
 Shell pair data                         ... done (   0.001 sec)

------------------------------------------------------------------------------
                          ORCA RELATIVISTIC HAMILTONIAN
------------------------------------------------------------------------------

Relativistic Method            ... DKH
Order of DKH treatment         ...   2
Treatment of potential         ... V(e,N)
Eps parameter for DKH          ...   0.00000000010000
Nucleus model                  ... Point Nucleus
Speed of light used            ... 137.03598950000000


            ************************************************
            *        DOUGLAS-KROLL-HESS HAMILTONIAN        *
            *   Programmed by FN according to literature   *
            *        procedures. Special thanks to         *
            *       B.A. Hess, M. Reiher and A. Wolf       *
            *     University Erlangen-Nuernberg/Bonn       *
            ************************************************

Uncontracting the basis (first version)        ... done
Number of contracted basis functions           ...  319
Number of uncontracted basis functions         ...  483
Initializing the DKH file                      ... done
One center approximation for DKH is active
Finding unique atoms                      ... 2 atom types
 ATOMIC NUMBER  92
          ... doing integrals          ... Computing the DKH transformation
          ... Transforming V and pVp to p**2 space
          ... First transformation of V and pVp
          ... Second transformation of Veff
          ... Adding kinetic energy
          ... Back transformation of Veff to r-space
          ... Recontracting the H-matrix
          ... Computing the DKH correction to the H-matrix
          ... adding submatrics to 1 actual atoms
 ATOMIC NUMBER   9
          ... doing integrals          ... Computing the DKH transformation
          ... Transforming V and pVp to p**2 space
          ... First transformation of V and pVp
          ... Second transformation of Veff
          ... Adding kinetic energy
          ... Back transformation of Veff to r-space
          ... Recontracting the H-matrix
          ... Computing the DKH correction to the H-matrix
          ... adding submatrics to 5 actual atoms
Storing DKH matrices                           ... done
Getting S**(-1/2)                              ... done
Reading the original H-matrix                  ... done
Adding DKH correction to the H-matrix          ... done
Storing the new modified H-matrix              ... done


           ************************************************************
           *        Program running with 42 parallel MPI-processes    *
           *              working on a common directory               *
           ************************************************************
-------------------------------------------------------------------------------
                                 ORCA SCF
-------------------------------------------------------------------------------

------------
SCF SETTINGS
------------
Hamiltonian:
 Ab initio Hamiltonian  Method          .... Hartree-Fock(GTOs)

Relativistic Settings:
 Scalar relativistic method             .... Douglas-Kroll-Hess
 Order of DKH procedure    Order        ....    2
 Mode of DKH-treatment                  .... V=V(e,N)
 Speed of light used       Velit        ....       137.035989
 Cutoff-constant           Eps          ....            1e-10 


General Settings:
 Integral files         IntName         .... /home/nikolayandreadi_2125/_scratch/MP2/UF5
 Hartree-Fock type      HFTyp           .... UHF
 Total Charge           Charge          ....    0
 Multiplicity           Mult            ....    2
 Number of Electrons    NEL             ....  137
 Basis Dimension        Dim             ....  319
 Nuclear Repulsion      ENuc            ....   1222.4756664850 Eh

Convergence Acceleration:
 DIIS                   CNVDIIS         .... on
   Start iteration      DIISMaxIt       ....     0
   Startup error        DIISStart       ....  0.200000
   # of expansion vecs  DIISMaxEq       ....     5
   Bias factor          DIISBfac        ....   1.050
   Max. coefficient     DIISMaxC        ....  10.000
 Newton-Raphson         CNVNR           .... off
 SOSCF                  CNVSOSCF        .... off
 Level Shifting         CNVShift        .... on
   Level shift para.    LevelShift      ....    0.2500
   Turn off err/grad.   ShiftErr        ....    0.0000
 Zerner damping         CNVZerner       .... off
 Static damping         CNVDamp         .... on
   Fraction old density DampFac         ....    0.8500
   Max. Damping (<1)    DampMax         ....    0.9800
   Min. Damping (>=0)   DampMin         ....    0.0000
   Turn off err/grad.   DampErr         ....    0.0300
 Fernandez-Rico         CNVRico         .... off

SCF Procedure:
 Maximum # iterations   MaxIter         ....  5000
 SCF integral mode      SCFMode         .... Direct
   Integral package                     .... LIBINT
 Reset frequeny         DirectResetFreq ....    20
 Integral Threshold     Thresh          ....  2.500e-11 Eh
 Primitive CutOff       TCut            ....  2.500e-12 Eh

Convergence Tolerance:
 Convergence Check Mode ConvCheckMode   .... Total+1el-Energy
 Convergence forced     ConvForced      .... 1
 Energy Change          TolE            ....  1.000e-08 Eh
 1-El. energy change                    ....  1.000e-05 Eh
 DIIS Error             TolErr          ....  5.000e-07


Diagonalization of the overlap matrix:
Smallest eigenvalue                        ... 4.387e-04
Time for diagonalization                   ...    0.023 sec
Threshold for overlap eigenvalues          ... 1.000e-08
Number of eigenvalues below threshold      ... 0
Time for construction of square roots      ...    0.032 sec
Total time needed                          ...    0.055 sec

-------------------
DFT GRID GENERATION
-------------------

General Integration Accuracy     IntAcc      ...  4.340
Radial Grid Type                 RadialGrid  ... Gauss-Chebyshev
Angular Grid (max. acc.)         AngularGrid ... Lebedev-110
Angular grid pruning method      GridPruning ... 3 (G Style)
Weight generation scheme         WeightScheme... Becke
Basis function cutoff            BFCut       ...    1.0000e-11
Integration weight cutoff        WCut        ...    1.0000e-14
Grids for H and He will be reduced by one unit

# of grid points (after initial pruning)     ...  12644 (   0.0 sec)
# of grid points (after weights+screening)   ...  12318 (   0.0 sec)
nearest neighbour list constructed           ...    0.0 sec
Grid point re-assignment to atoms done       ...    0.0 sec
Grid point division into batches done        ...    0.0 sec
Reduced shell lists constructed in    0.0 sec

Total number of grid points                  ...    12318
Total number of batches                      ...      195
Average number of points per batch           ...       63
Average number of grid points per atom       ...     2053
Average number of shells per batch           ...    56.00 (50.45%)
Average number of basis functions per batch  ...   186.33 (58.41%)
Average number of large shells per batch     ...    48.83 (87.20%)
Average number of large basis fcns per batch ...   157.83 (84.70%)
Maximum spatial batch extension              ...   2.47,  2.68,  2.33 au
Average spatial batch extension              ...   0.05,  0.06,  0.05 au

Time for grid setup =    0.109 sec

------------------------------
INITIAL GUESS: MODEL POTENTIAL
------------------------------
Loading DKH relativistic densities                 ... done
Calculating cut-offs                               ... done
Setting up the integral package                    ... done
Initializing the effective Hamiltonian             ... done
Starting the Coulomb interaction                   ... done (   0.0 sec)
Reading the grid                                   ... done
Mapping shells                                     ... done
Starting the XC term evaluation                    ... done (   0.0 sec)
Transforming the Hamiltonian                       ... done (   0.0 sec)
Diagonalizing the Hamiltonian                      ... done (   0.0 sec)
Back transforming the eigenvectors                 ... done (   0.0 sec)
Now organizing SCF variables                       ... done
                      ------------------
                      INITIAL GUESS DONE (   0.3 sec)
                      ------------------
--------------
SCF ITERATIONS
--------------
ITER       Energy         Delta-E        Max-DP      RMS-DP      [F,P]     Damp
               ***  Starting incremental Fock matrix formation  ***
  0 -28446.4365186251   0.000000000000 0.06475944  0.00052042  8.0211478 0.8500
  1 -28446.5697737635  -0.133255138411 0.04764397  0.00042184  6.8236206 0.8500
                               ***Turning on DIIS***
  2 -28446.6584092377  -0.088635474222 0.02979428  0.00030033  5.8047847 0.8500
  3 -28439.4889572044   7.169452033315 0.01614811  0.00017413  4.9379781 0.8500
  4 -28438.0129696974   1.475987506976 0.01340134  0.00014123  4.1994142 0.8500
  5 -28440.2581574456  -2.245187748213 0.01119271  0.00013104  3.5703153 0.8500
  6 -28441.8023191918  -1.544161746177 0.01012882  0.00012094  3.0351163 0.8500
  7 -28443.8105676024  -2.008248410661 0.00986846  0.00011298  2.5800218 0.8500
  8 -28444.0336414618  -0.223073859379 0.00838411  0.00009830  2.1931952 0.8500
  9 -28444.1169036392  -0.083262177392 0.00687426  0.00008382  1.8643533 0.8500
 10 -28444.4705631182  -0.353659478958 0.00577722  0.00007216  1.5848060 0.8500
 11 -28444.9189640213  -0.448400903148 0.00497139  0.00006265  1.3471741 0.8500
 12 -28445.3320117495  -0.413047728158 0.00430685  0.00005451  1.1451765 0.8500
 13 -28445.6096684760  -0.277656726550 0.00368370  0.00004724  0.9734694 0.8500
 14 -28445.8098232223  -0.200154746242 0.00319048  0.00004079  0.8275077 0.8500
 15 -28445.9870834901  -0.177260267872 0.00281889  0.00003519  0.7034305 0.8500
 16 -28446.1522282863  -0.165144796192 0.00248421  0.00003040  0.5979570 0.8500
 17 -28446.2980441800  -0.145815893640 0.00218485  0.00002628  0.5082985 0.8500
 18 -28446.4185794021  -0.120535222159 0.00191785  0.00002272  0.4320838 0.8500
 19 -28446.5172274317  -0.098648029580 0.00168053  0.00001965  0.3672968 0.8500
               *** Restarting incremental Fock matrix formation ***
                                   *** Resetting DIIS ***
 20 -28447.0430488095  -0.525821377742 0.00128175  0.00001496  0.3122239 0.8500
 21 -28446.8278349993   0.215213810170 0.00097734  0.00001226  0.2655945 0.8500
 22 -28446.7289563121   0.098878687193 0.00097943  0.00001127  0.2258700 0.8500
 23 -28446.7839411594  -0.054984847306 0.00089741  0.00001050  0.1920334 0.8500
 24 -28446.8395363783  -0.055595218859 0.00086052  0.00000960  0.1632466 0.8500
 25 -28446.9092724442  -0.069736065921 0.00080148  0.00000867  0.1387683 0.8500
 26 -28446.9321108472  -0.022838403009 0.00073419  0.00000780  0.1179617 0.8500
 27 -28446.9420382897  -0.009927442494 0.00066291  0.00000697  0.1002746 0.8500
 28 -28446.9562678229  -0.014229533241 0.00059294  0.00000622  0.0852390 0.8500
 29 -28446.9731700483  -0.016902225339 0.00052721  0.00000554  0.0724579 0.8500
 30 -28446.9893750850  -0.016205036722 0.00046671  0.00000493  0.0615933 0.8500
 31 -28447.0016691325  -0.012294047534 0.00041149  0.00000440  0.0523578 0.8500
 32 -28447.0109814635  -0.009312330949 0.00036157  0.00000394  0.0445072 0.8500
 33 -28447.0189030883  -0.007921624841 0.00031689  0.00000353  0.0378337 0.8500
 34 -28447.0260283635  -0.007125275217 0.00028179  0.00000318  0.0321607 0.8500
 35 -28447.0323199494  -0.006291585923 0.00172824  0.00001918  0.0273385 0.0000
 36 -28447.0679646232  -0.035644673728 0.00040478  0.00000321  0.0013194 0.0000
 37 -28447.0687286876  -0.000764064382 0.00055876  0.00000406  0.0012986 0.0000
 38 -28447.0659319990   0.002796688572 0.00096108  0.00000671  0.0012672 0.0000
 39 -28447.0680562433  -0.002124244351 0.00130731  0.00000884  0.0011962 0.0000
               *** Restarting incremental Fock matrix formation ***
                                   *** Resetting DIIS ***
 40 -28447.0680561143   0.000000129039 0.00035420  0.00000247  0.0011033 0.0000
 41 -28447.0678812024   0.000174911933 0.00034455  0.00000233  0.0011119 0.0000
 42 -28447.0678885909  -0.000007388546 0.00053688  0.00000354  0.0011068 0.0000
 43 -28447.0692426120  -0.001354021133 0.00138694  0.00000901  0.0010742 0.0000
 44 -28447.0661983586   0.003044253437 0.00417385  0.00002665  0.0009594 0.0000
 45 -28447.0671004310  -0.000902072381 0.00087199  0.00000538  0.0008909 0.0000
 46 -28447.0675188006  -0.000418369644 0.00518053  0.00003251  0.0007918 0.0000
 47 -28447.0679367360  -0.000417935331 0.00232642  0.00001493  0.0007167 0.0000
 48 -28447.0670477480   0.000888987972 0.00296725  0.00001851  0.0004644 0.0000
 49 -28447.0675208670  -0.000473118995 0.00164680  0.00001039  0.0003343 0.0000
 50 -28447.0686383235  -0.001117456515 0.00086525  0.00000549  0.0002061 0.0000
 51 -28447.0681467794   0.000491544128 0.00062068  0.00000390  0.0001175 0.0000
 52 -28447.0677587913   0.000387988061 0.00044867  0.00000282  0.0000737 0.0000
 53 -28447.0680833026  -0.000324511238 0.00039203  0.00000244  0.0000475 0.0000
 54 -28447.0681120606  -0.000028758099 0.00003377  0.00000027  0.0000502 0.0000
 55 -28447.0682074295  -0.000095368821 0.00011565  0.00000069  0.0000521 0.0000
 56 -28447.0683465757  -0.000139146199 0.00017088  0.00000103  0.0000532 0.0000
 57 -28447.0682167572   0.000129818458 0.00007916  0.00000050  0.0000538 0.0000
 58 -28447.0682117888   0.000004968417 0.00001852  0.00000014  0.0000542 0.0000
 59 -28447.0682048719   0.000006916922 0.00001596  0.00000011  0.0000550 0.0000
               *** Restarting incremental Fock matrix formation ***
                                   *** Resetting DIIS ***
 60 -28447.0681974034   0.000007468436 0.00001944  0.00000011  0.0000561 0.0000
 61 -28447.0682061705  -0.000008767071 0.00001403  0.00000008  0.0000572 0.0000
 62 -28447.0682017892   0.000004381356 0.00000344  0.00000002  0.0000583 0.0000
 63 -28447.0682066951  -0.000004905949 0.00000045  0.00000000  0.0000589 0.0000
 64 -28447.0682079278  -0.000001232667 0.00000019  0.00000000  0.0000589 0.0000
 65 -28447.0682002634   0.000007664414 0.00001977  0.00000011  0.0000589 0.0000
 66 -28447.0681928152   0.000007448158 0.00001074  0.00000006  0.0000593 0.0000
 67 -28447.0681837187   0.000009096522 0.00001205  0.00000007  0.0000604 0.0000
 68 -28447.0681829697   0.000000748987 0.00000598  0.00000003  0.0000609 0.0000
 69 -28447.0681886591  -0.000005689406 0.00001167  0.00000007  0.0000606 0.0000
 70 -28447.0681964044  -0.000007745271 0.00001224  0.00000007  0.0000610 0.0000
 71 -28447.0682015204  -0.000005116017 0.00000120  0.00000001  0.0000617 0.0000
 72 -28447.0682031638  -0.000001643457 0.00000492  0.00000003  0.0000624 0.0000
 73 -28447.0682029837   0.000000180102 0.00000108  0.00000001  0.0000626 0.0000
 74 -28447.0681999533   0.000003030425 0.00001426  0.00000008  0.0000627 0.0000
 75 -28447.0681945919   0.000005361362 0.00001075  0.00000006  0.0000630 0.0000
 76 -28447.0681890436   0.000005548329 0.00000309  0.00000002  0.0000638 0.0000
 77 -28447.0681893641  -0.000000320513 0.00000886  0.00000005  0.0000644 0.0000
 78 -28447.0681913298  -0.000001965655 0.00000404  0.00000002  0.0000645 0.0000
 79 -28447.0681954219  -0.000004092144 0.00000918  0.00000005  0.0000649 0.0000
               *** Restarting incremental Fock matrix formation ***
                                   *** Resetting DIIS ***
 80 -28447.0681974927  -0.000002070814 0.00002254  0.00000013  0.0000652 0.0000
 81 -28447.0681970019   0.000000490872 0.00001789  0.00000010  0.0000661 0.0000
 82 -28447.0681956708   0.000001331038 0.00000317  0.00000002  0.0000673 0.0000
 83 -28447.0681951232   0.000000547618 0.00000049  0.00000000  0.0000681 0.0000
 84 -28447.0681949776   0.000000145603 0.00000013  0.00000000  0.0000681 0.0000
 85 -28447.0681965003  -0.000001522683 0.00002153  0.00000012  0.0000680 0.0000
 86 -28447.0681971230  -0.000000622684 0.00001262  0.00000007  0.0000684 0.0000
 87 -28447.0681966957   0.000000427317 0.00001166  0.00000007  0.0000696 0.0000
 88 -28447.0681973928  -0.000000697175 0.00000704  0.00000004  0.0000702 0.0000
 89 -28447.0681975339  -0.000000141023 0.00001286  0.00000007  0.0000700 0.0000
 90 -28447.0681971306   0.000000403234 0.00001226  0.00000007  0.0000704 0.0000
 91 -28447.0681962571   0.000000873559 0.00000231  0.00000001  0.0000711 0.0000
 92 -28447.0681954157   0.000000841392 0.00000329  0.00000002  0.0000719 0.0000
 93 -28447.0681959705  -0.000000554821 0.00001110  0.00000006  0.0000720 0.0000
 94 -28447.0681968625  -0.000000892036 0.00001481  0.00000008  0.0000721 0.0000
 95 -28447.0681972173  -0.000000354765 0.00000574  0.00000003  0.0000728 0.0000
 96 -28447.0681974207  -0.000000203432 0.00000286  0.00000002  0.0000736 0.0000
 97 -28447.0681977948  -0.000000374108 0.00000930  0.00000005  0.0000739 0.0000
 98 -28447.0681975345   0.000000260363 0.00001130  0.00000006  0.0000740 0.0000
 99 -28447.0681970133   0.000000521133 0.00000925  0.00000005  0.0000746 0.0000
               *** Restarting incremental Fock matrix formation ***
                                   *** Resetting DIIS ***
100 -28447.0681976126  -0.000000599292 0.00002600  0.00000015  0.0000753 0.0000
101 -28447.0681975939   0.000000018750 0.00002073  0.00000012  0.0000763 0.0000
102 -28447.0681969153   0.000000678545 0.00000365  0.00000002  0.0000776 0.0000
103 -28447.0681968215   0.000000093809 0.00000058  0.00000000  0.0000785 0.0000
                 **** Energy Check signals convergence ****

               *****************************************************
               *                     SUCCESS                       *
               *           SCF CONVERGED AFTER 104 CYCLES          *
               *****************************************************


----------------
TOTAL SCF ENERGY
----------------

Total Energy       :       -28447.06819682 Eh         -774084.07931 eV

Components:
Nuclear Repulsion  :         1222.47566648 Eh           33265.25406 eV
Electronic Energy  :       -29669.54386330 Eh         -807349.33337 eV
One Electron Energy:       -41057.67974767 Eh        -1117236.26513 eV
Two Electron Energy:        11388.13588437 Eh          309886.93176 eV

Virial components:
Potential Energy   :       -80717.26522284 Eh        -2196428.45098 eV
Kinetic Energy     :        52270.19702602 Eh         1422344.37167 eV
Virial Ratio       :            1.54423113


---------------
SCF CONVERGENCE
---------------

  Last Energy change         ...    4.5111e-09  Tolerance :   1.0000e-08
  Last MAX-Density change    ...    1.3675e-07  Tolerance :   1.0000e-07
  Last RMS-Density change    ...    7.8020e-10  Tolerance :   5.0000e-09
  Last DIIS Error            ...    7.8498e-05  Tolerance :   5.0000e-07

             **** THE GBW FILE WAS UPDATED (/home/nikolayandreadi_2125/_scratch/MP2/UF5.gbw) ****
             **** DENSITY FILE WAS UPDATED (/home/nikolayandreadi_2125/_scratch/MP2/UF5.scfp.tmp) ****
             **** ENERGY FILE WAS UPDATED (/home/nikolayandreadi_2125/_scratch/MP2/UF5.en.tmp) ****
----------------------
UHF SPIN CONTAMINATION
----------------------

Expectation value of <S**2>     :     0.754557
Ideal value S*(S+1) for S=0.5   :     0.750000
Deviation                       :     0.004557

----------------
ORBITAL ENERGIES
----------------
                 SPIN UP ORBITALS
  NO   OCC          E(Eh)            E(eV) 
   0   1.0000   -4260.689368   -115939.2519 
   1   1.0000    -804.647758    -21895.5787 
   2   1.0000    -675.304956    -18375.9821 
   3   1.0000    -675.301865    -18375.8980 
   4   1.0000    -675.301486    -18375.8877 
   5   1.0000    -206.706495     -5624.7697 
   6   1.0000    -170.092166     -4628.4431 
   7   1.0000    -170.085424     -4628.2597 
   8   1.0000    -170.085163     -4628.2526 
   9   1.0000    -135.519883     -3687.6835 
  10   1.0000    -135.519876     -3687.6833 
  11   1.0000    -135.517560     -3687.6203 
  12   1.0000    -135.516530     -3687.5923 
  13   1.0000    -135.515849     -3687.5737 
  14   1.0000     -54.681675     -1487.9640 
  15   1.0000     -42.452212     -1155.1834 
  16   1.0000     -42.432531     -1154.6479 
  17   1.0000     -42.432478     -1154.6464 
  18   1.0000     -29.204772      -794.7022 
  19   1.0000     -29.201015      -794.6000 
  20   1.0000     -29.200601      -794.5888 
  21   1.0000     -29.187679      -794.2371 
  22   1.0000     -29.187631      -794.2358 
  23   1.0000     -26.345314      -716.8924 
  24   1.0000     -26.345194      -716.8892 
  25   1.0000     -26.330322      -716.4845 
  26   1.0000     -26.330165      -716.4802 
  27   1.0000     -26.325599      -716.3560 
  28   1.0000     -15.447780      -420.3555 
  29   1.0000     -15.422818      -419.6762 
  30   1.0000     -15.420841      -419.6224 
  31   1.0000     -15.420138      -419.6033 
  32   1.0000     -15.415762      -419.4842 
  33   1.0000     -15.414454      -419.4486 
  34   1.0000     -15.398070      -419.0028 
  35   1.0000     -12.984315      -353.3212 
  36   1.0000      -9.076259      -246.9776 
  37   1.0000      -9.060694      -246.5540 
  38   1.0000      -9.059785      -246.5293 
  39   1.0000      -4.559640      -124.0741 
  40   1.0000      -4.550596      -123.8280 
  41   1.0000      -4.524564      -123.1197 
  42   1.0000      -4.512161      -122.7822 
  43   1.0000      -4.506656      -122.6324 
  44   1.0000      -2.426989       -66.0417 
  45   1.0000      -1.664803       -45.3016 
  46   1.0000      -1.635401       -44.5015 
  47   1.0000      -1.623526       -44.1784 
  48   1.0000      -1.605950       -43.7001 
  49   1.0000      -1.578295       -42.9476 
  50   1.0000      -1.288401       -35.0592 
  51   1.0000      -1.271767       -34.6065 
  52   1.0000      -1.270687       -34.5772 
  53   1.0000      -0.756136       -20.5755 
  54   1.0000      -0.723446       -19.6860 
  55   1.0000      -0.718814       -19.5599 
  56   1.0000      -0.708262       -19.2728 
  57   1.0000      -0.707973       -19.2649 
  58   1.0000      -0.699260       -19.0278 
  59   1.0000      -0.685047       -18.6411 
  60   1.0000      -0.679801       -18.4983 
  61   1.0000      -0.673880       -18.3372 
  62   1.0000      -0.665140       -18.0994 
  63   1.0000      -0.653929       -17.7943 
  64   1.0000      -0.642743       -17.4899 
  65   1.0000      -0.635389       -17.2898 
  66   1.0000      -0.617611       -16.8060 
  67   1.0000      -0.612548       -16.6683 
  68   1.0000      -0.578219       -15.7341 
  69   0.0000       0.006077         0.1654 
  70   0.0000       0.015505         0.4219 
  71   0.0000       0.016869         0.4590 
  72   0.0000       0.017901         0.4871 
  73   0.0000       0.030487         0.8296 
  74   0.0000       0.047999         1.3061 
  75   0.0000       0.063930         1.7396 
  76   0.0000       0.071164         1.9365 
  77   0.0000       0.088104         2.3974 
  78   0.0000       0.115252         3.1362 
  79   0.0000       0.132615         3.6086 
  80   0.0000       0.137055         3.7295 
  81   0.0000       0.145300         3.9538 
  82   0.0000       0.149839         4.0773 
  83   0.0000       0.152183         4.1411 
  84   0.0000       0.155766         4.2386 
  85   0.0000       0.155839         4.2406 
  86   0.0000       0.155843         4.2407 
  87   0.0000       0.172463         4.6930 
  88   0.0000       0.224262         6.1025 
  89   0.0000       0.293121         7.9762 
  90   0.0000       0.388557        10.5732 
  91   0.0000       0.415644        11.3102 
  92   0.0000       0.449121        12.2212 
  93   0.0000       0.465994        12.6803 
  94   0.0000       0.477416        12.9911 
  95   0.0000       0.501618        13.6497 
  96   0.0000       0.510134        13.8815 
  97   0.0000       0.519341        14.1320 
  98   0.0000       0.520195        14.1552 
  99   0.0000       0.545959        14.8563 
 100   0.0000       0.557892        15.1810 
 101   0.0000       0.576952        15.6997 
 102   0.0000       0.593690        16.1551 
 103   0.0000       0.595839        16.2136 
 104   0.0000       0.606871        16.5138 
 105   0.0000       0.630632        17.1604 
 106   0.0000       0.723851        19.6970 
 107   0.0000       0.802717        21.8430 
 108   0.0000       0.817926        22.2569 
 109   0.0000       0.857037        23.3212 
 110   0.0000       0.865912        23.5627 
 111   0.0000       0.873413        23.7668 
 112   0.0000       0.885110        24.0851 
 113   0.0000       0.891053        24.2468 
 114   0.0000       0.915729        24.9182 
 115   0.0000       0.949782        25.8449 
 116   0.0000       0.956418        26.0254 
 117   0.0000       0.963461        26.2171 
 118   0.0000       0.965825        26.2814 
 119   0.0000       0.985822        26.8256 
 120   0.0000       1.010223        27.4896 
 121   0.0000       1.033087        28.1117 
 122   0.0000       1.239270        33.7223 
 123   0.0000       1.242206        33.8022 
 124   0.0000       1.249155        33.9912 
 125   0.0000       1.288978        35.0749 
 126   0.0000       1.297540        35.3078 
 127   0.0000       1.313775        35.7496 
 128   0.0000       1.346056        36.6280 
 129   0.0000       1.366229        37.1770 
 130   0.0000       1.396636        38.0044 
 131   0.0000       1.424380        38.7593 
 132   0.0000       1.503887        40.9229 
 133   0.0000       1.633371        44.4463 
 134   0.0000       1.640822        44.6490 
 135   0.0000       1.665839        45.3298 
 136   0.0000       1.726876        46.9907 
 137   0.0000       1.970844        53.6294 
 138   0.0000       1.991794        54.1995 
 139   0.0000       2.070410        56.3387 
 140   0.0000       2.144439        58.3531 
 141   0.0000       2.184811        59.4517 
 142   0.0000       2.204597        59.9901 
 143   0.0000       2.214694        60.2649 
 144   0.0000       2.220249        60.4161 
 145   0.0000       2.233358        60.7728 
 146   0.0000       2.246693        61.1356 
 147   0.0000       2.254044        61.3357 
 148   0.0000       2.272419        61.8357 
 149   0.0000       2.305327        62.7311 
 150   0.0000       2.313888        62.9641 
 151   0.0000       2.359958        64.2177 
 152   0.0000       2.384163        64.8764 
 153   0.0000       2.390148        65.0392 
 154   0.0000       2.408731        65.5449 
 155   0.0000       2.431282        66.1586 
 156   0.0000       2.488336        67.7111 
 157   0.0000       2.601596        70.7930 
 158   0.0000       2.615810        71.1798 
 159   0.0000       2.640529        71.8524 
 160   0.0000       2.690221        73.2046 
 161   0.0000       2.720774        74.0360 
 162   0.0000       2.794673        76.0469 
 163   0.0000       2.843104        77.3648 
 164   0.0000       2.879893        78.3659 
 165   0.0000       2.993755        81.4642 
 166   0.0000       3.038172        82.6729 
 167   0.0000       3.063353        83.3581 
 168   0.0000       3.649271        99.3017 
 169   0.0000       3.683293       100.2275 
 170   0.0000       3.685917       100.2989 
 171   0.0000       3.693122       100.4950 
 172   0.0000       3.701995       100.7364 
 173   0.0000       3.715234       101.0967 
 174   0.0000       3.733255       101.5870 
 175   0.0000       3.735737       101.6546 
 176   0.0000       3.753984       102.1511 
 177   0.0000       3.775429       102.7346 
 178   0.0000       3.788607       103.0932 
 179   0.0000       3.881603       105.6238 
 180   0.0000       3.922624       106.7400 
 181   0.0000       3.957500       107.6890 
 182   0.0000       4.009480       109.1035 
 183   0.0000       4.016531       109.2954 
 184   0.0000       4.045063       110.0718 
 185   0.0000       4.094463       111.4160 
 186   0.0000       4.147471       112.8584 
 187   0.0000       4.153392       113.0196 
 188   0.0000       4.283838       116.5692 
 189   0.0000       4.380067       119.1877 
 190   0.0000       4.485260       122.0501 
 191   0.0000       4.507554       122.6568 
 192   0.0000       4.529256       123.2473 
 193   0.0000       4.600770       125.1933 
 194   0.0000       4.777214       129.9946 
 195   0.0000       7.310956       198.9412 
 196   0.0000       7.322760       199.2624 
 197   0.0000       7.326112       199.3536 
 198   0.0000       7.332239       199.5204 
 199   0.0000       7.335123       199.5989 
 200   0.0000       7.336791       199.6442 
 201   0.0000       7.339597       199.7206 
 202   0.0000       7.343786       199.8346 
 203   0.0000       7.346471       199.9076 
 204   0.0000       7.346784       199.9161 
 205   0.0000       7.347594       199.9382 
 206   0.0000       7.349025       199.9771 
 207   0.0000       7.349589       199.9925 
 208   0.0000       7.354298       200.1206 
 209   0.0000       7.357242       200.2007 
 210   0.0000       7.363381       200.3678 
 211   0.0000       7.364899       200.4091 
 212   0.0000       7.364959       200.4107 
 213   0.0000       7.367267       200.4735 
 214   0.0000       7.367465       200.4789 
 215   0.0000       7.368019       200.4940 
 216   0.0000       7.368932       200.5188 
 217   0.0000       7.371833       200.5978 
 218   0.0000       7.372027       200.6031 
 219   0.0000       7.374623       200.6737 
 220   0.0000       7.377087       200.7408 
 221   0.0000       7.379960       200.8189 
 222   0.0000       7.393032       201.1746 
 223   0.0000       7.401904       201.4160 
 224   0.0000       7.405995       201.5274 
 225   0.0000       7.414020       201.7457 
 226   0.0000       7.417052       201.8282 
 227   0.0000       7.429577       202.1691 
 228   0.0000       7.433147       202.2662 
 229   0.0000       7.441236       202.4863 
 230   0.0000       8.089220       220.1189 
 231   0.0000       8.134722       221.3570 
 232   0.0000       8.253703       224.5947 
 233   0.0000       8.825468       240.1532 
 234   0.0000       8.829090       240.2517 
 235   0.0000       8.831932       240.3291 
 236   0.0000       8.841835       240.5985 
 237   0.0000       8.848033       240.7672 
 238   0.0000       8.849428       240.8052 
 239   0.0000       8.856123       240.9874 
 240   0.0000       8.871964       241.4184 
 241   0.0000       8.874906       241.4985 
 242   0.0000       8.877002       241.5555 
 243   0.0000       8.883592       241.7348 
 244   0.0000       8.883738       241.7388 
 245   0.0000       8.891573       241.9520 
 246   0.0000       8.930059       242.9992 
 247   0.0000       8.952330       243.6053 
 248   0.0000       8.972060       244.1422 
 249   0.0000       9.019557       245.4346 
 250   0.0000       9.061556       246.5775 
 251   0.0000       9.077960       247.0239 
 252   0.0000       9.093021       247.4337 
 253   0.0000       9.097352       247.5515 
 254   0.0000       9.134519       248.5629 
 255   0.0000       9.142798       248.7882 
 256   0.0000       9.162033       249.3116 
 257   0.0000       9.219709       250.8810 
 258   0.0000       9.255457       251.8538 
 259   0.0000       9.336890       254.0697 
 260   0.0000       9.403660       255.8866 
 261   0.0000       9.485913       258.1248 
 262   0.0000       9.489601       258.2252 
 263   0.0000       9.798442       266.6292 
 264   0.0000      13.554282       368.8308 
 265   0.0000      13.568676       369.2224 
 266   0.0000      13.595135       369.9424 
 267   0.0000      13.635139       371.0310 
 268   0.0000      13.681577       372.2946 
 269   0.0000      13.683072       372.3353 
 270   0.0000      13.762447       374.4952 
 271   0.0000      19.810672       539.0758 
 272   0.0000      19.830982       539.6285 
 273   0.0000      19.847420       540.0757 
 274   0.0000      19.950886       542.8912 
 275   0.0000      20.009126       544.4760 
 276   0.0000      44.133169      1200.9246 
 277   0.0000      46.666769      1269.8673 
 278   0.0000      46.678206      1270.1786 
 279   0.0000      46.703379      1270.8636 
 280   0.0000      46.746231      1272.0296 
 281   0.0000      46.841910      1274.6332 
 282   0.0000      47.318149      1287.5923 
 283   0.0000      47.342281      1288.2489 
 284   0.0000      47.425989      1290.5268 
 285   0.0000      53.128327      1445.6953 
 286   0.0000      53.136158      1445.9084 
 287   0.0000      53.149992      1446.2848 
 288   0.0000      53.166320      1446.7291 
 289   0.0000      53.194491      1447.4957 
 290   0.0000      53.195340      1447.5188 
 291   0.0000      53.231605      1448.5056 
 292   0.0000     102.964125      2801.7963 
 293   0.0000     102.981476      2802.2684 
 294   0.0000     103.002250      2802.8337 
 295   0.0000     103.099676      2805.4848 
 296   0.0000     103.161712      2807.1729 
 297   0.0000     205.003956      5578.4412 
 298   0.0000     235.902184      6419.2248 
 299   0.0000     235.908325      6419.3919 
 300   0.0000     235.923487      6419.8045 
 301   0.0000     235.951281      6420.5608 
 302   0.0000     236.001828      6421.9362 
 303   0.0000     264.265127      7191.0197 
 304   0.0000     264.286064      7191.5894 
 305   0.0000     264.347514      7193.2616 
 306   0.0000     792.437415     21563.3183 
 307   0.0000    1085.598102     29540.6262 
 308   0.0000    1085.612421     29541.0158 
 309   0.0000    1085.657080     29542.2310 
 310   0.0000    2430.667024     66141.8123 
 311   0.0000    3783.337944    102949.8593 
 312   0.0000    3783.348025    102950.1336 
 313   0.0000    3783.381105    102951.0338 
 314   0.0000    6095.646532    165870.9749 
 315   0.0000   13027.265214    354489.9084 
 316   0.0000   24922.188362    678167.2227 
 317   0.0000   43992.414543   1197094.4588 
 318   0.0000   84401.534040   2296682.5023 

                 SPIN DOWN ORBITALS
  NO   OCC          E(Eh)            E(eV) 
   0   1.0000   -4260.689321   -115939.2507 
   1   1.0000    -804.647665    -21895.5761 
   2   1.0000    -675.305069    -18375.9852 
   3   1.0000    -675.301821    -18375.8968 
   4   1.0000    -675.301440    -18375.8864 
   5   1.0000    -206.699621     -5624.5826 
   6   1.0000    -170.090426     -4628.3958 
   7   1.0000    -170.074752     -4627.9693 
   8   1.0000    -170.073965     -4627.9479 
   9   1.0000    -135.515046     -3687.5519 
  10   1.0000    -135.513726     -3687.5160 
  11   1.0000    -135.513681     -3687.5147 
  12   1.0000    -135.502756     -3687.2174 
  13   1.0000    -135.502017     -3687.1973 
  14   1.0000     -54.677346     -1487.8462 
  15   1.0000     -42.451084     -1155.1527 
  16   1.0000     -42.427776     -1154.5185 
  17   1.0000     -42.427180     -1154.5023 
  18   1.0000     -29.201844      -794.6226 
  19   1.0000     -29.199237      -794.5516 
  20   1.0000     -29.198536      -794.5326 
  21   1.0000     -29.180863      -794.0516 
  22   1.0000     -29.179581      -794.0168 
  23   1.0000     -26.346581      -716.9269 
  24   1.0000     -26.346460      -716.9236 
  25   1.0000     -26.330226      -716.4819 
  26   1.0000     -26.330078      -716.4778 
  27   1.0000     -26.325635      -716.3569 
  28   1.0000     -15.419322      -419.5811 
  29   1.0000     -15.417011      -419.5182 
  30   1.0000     -15.416763      -419.5115 
  31   1.0000     -15.410639      -419.3448 
  32   1.0000     -15.410049      -419.3288 
  33   1.0000     -15.396473      -418.9593 
  34   1.0000     -15.390853      -418.8064 
  35   1.0000     -12.959510      -352.6462 
  36   1.0000      -9.068793      -246.7744 
  37   1.0000      -9.014154      -245.2876 
  38   1.0000      -9.008313      -245.1287 
  39   1.0000      -4.499158      -122.4283 
  40   1.0000      -4.492978      -122.2601 
  41   1.0000      -4.492904      -122.2581 
  42   1.0000      -4.444433      -120.9392 
  43   1.0000      -4.440902      -120.8431 
  44   1.0000      -2.394362       -65.1539 
  45   1.0000      -1.667490       -45.3747 
  46   1.0000      -1.630739       -44.3747 
  47   1.0000      -1.619867       -44.0788 
  48   1.0000      -1.608489       -43.7692 
  49   1.0000      -1.577666       -42.9305 
  50   1.0000      -1.271486       -34.5989 
  51   1.0000      -1.254676       -34.1415 
  52   1.0000      -1.241659       -33.7873 
  53   1.0000      -0.751449       -20.4480 
  54   1.0000      -0.720179       -19.5971 
  55   1.0000      -0.710173       -19.3248 
  56   1.0000      -0.707237       -19.2449 
  57   1.0000      -0.698355       -19.0032 
  58   1.0000      -0.692158       -18.8346 
  59   1.0000      -0.683446       -18.5975 
  60   1.0000      -0.680105       -18.5066 
  61   1.0000      -0.674639       -18.3579 
  62   1.0000      -0.666030       -18.1236 
  63   1.0000      -0.655516       -17.8375 
  64   1.0000      -0.644472       -17.5370 
  65   1.0000      -0.632607       -17.2141 
  66   1.0000      -0.619226       -16.8500 
  67   1.0000      -0.609844       -16.5947 
  68   0.0000       0.009855         0.2682 
  69   0.0000       0.032272         0.8782 
  70   0.0000       0.037440         1.0188 
  71   0.0000       0.038171         1.0387 
  72   0.0000       0.041437         1.1276 
  73   0.0000       0.057075         1.5531 
  74   0.0000       0.062192         1.6923 
  75   0.0000       0.079215         2.1555 
  76   0.0000       0.093617         2.5474 
  77   0.0000       0.117384         3.1942 
  78   0.0000       0.121420         3.3040 
  79   0.0000       0.135636         3.6909 
  80   0.0000       0.138082         3.7574 
  81   0.0000       0.147643         4.0176 
  82   0.0000       0.150369         4.0918 
  83   0.0000       0.152835         4.1589 
  84   0.0000       0.156146         4.2489 
  85   0.0000       0.156219         4.2509 
  86   0.0000       0.157326         4.2811 
  87   0.0000       0.186840         5.0842 
  88   0.0000       0.243690         6.6311 
  89   0.0000       0.315180         8.5765 
  90   0.0000       0.398017        10.8306 
  91   0.0000       0.418384        11.3848 
  92   0.0000       0.450893        12.2694 
  93   0.0000       0.468299        12.7431 
  94   0.0000       0.481683        13.1073 
  95   0.0000       0.505517        13.7558 
  96   0.0000       0.510366        13.8878 
  97   0.0000       0.520586        14.1659 
  98   0.0000       0.523978        14.2582 
  99   0.0000       0.546580        14.8732 
 100   0.0000       0.559108        15.2141 
 101   0.0000       0.588452        16.0126 
 102   0.0000       0.598873        16.2962 
 103   0.0000       0.601915        16.3789 
 104   0.0000       0.607837        16.5401 
 105   0.0000       0.631962        17.1966 
 106   0.0000       0.728729        19.8297 
 107   0.0000       0.803110        21.8537 
 108   0.0000       0.817861        22.2551 
 109   0.0000       0.857148        23.3242 
 110   0.0000       0.866021        23.5656 
 111   0.0000       0.872956        23.7543 
 112   0.0000       0.885255        24.0890 
 113   0.0000       0.890624        24.2351 
 114   0.0000       0.916608        24.9422 
 115   0.0000       0.949623        25.8406 
 116   0.0000       0.956464        26.0267 
 117   0.0000       0.963567        26.2200 
 118   0.0000       0.965822        26.2814 
 119   0.0000       0.986438        26.8423 
 120   0.0000       1.010512        27.4974 
 121   0.0000       1.033509        28.1232 
 122   0.0000       1.244784        33.8723 
 123   0.0000       1.248370        33.9699 
 124   0.0000       1.253430        34.1076 
 125   0.0000       1.290311        35.1112 
 126   0.0000       1.299578        35.3633 
 127   0.0000       1.316500        35.8238 
 128   0.0000       1.349632        36.7254 
 129   0.0000       1.395679        37.9784 
 130   0.0000       1.421265        38.6746 
 131   0.0000       1.427608        38.8472 
 132   0.0000       1.506425        40.9919 
 133   0.0000       1.643103        44.7111 
 134   0.0000       1.646647        44.8075 
 135   0.0000       1.678493        45.6741 
 136   0.0000       1.726875        46.9906 
 137   0.0000       1.973831        53.7107 
 138   0.0000       1.996257        54.3209 
 139   0.0000       2.089082        56.8468 
 140   0.0000       2.160222        58.7826 
 141   0.0000       2.190569        59.6084 
 142   0.0000       2.204513        59.9879 
 143   0.0000       2.214433        60.2578 
 144   0.0000       2.219967        60.4084 
 145   0.0000       2.233304        60.7713 
 146   0.0000       2.246413        61.1280 
 147   0.0000       2.253778        61.3284 
 148   0.0000       2.272797        61.8460 
 149   0.0000       2.306807        62.7714 
 150   0.0000       2.313885        62.9640 
 151   0.0000       2.360132        64.2225 
 152   0.0000       2.390075        65.0373 
 153   0.0000       2.391530        65.0768 
 154   0.0000       2.410554        65.5945 
 155   0.0000       2.436687        66.3056 
 156   0.0000       2.489337        67.7383 
 157   0.0000       2.606342        70.9222 
 158   0.0000       2.616930        71.2103 
 159   0.0000       2.641076        71.8673 
 160   0.0000       2.691636        73.2431 
 161   0.0000       2.721317        74.0508 
 162   0.0000       2.795446        76.0679 
 163   0.0000       2.845156        77.4206 
 164   0.0000       2.883043        78.4516 
 165   0.0000       2.995398        81.5089 
 166   0.0000       3.036863        82.6372 
 167   0.0000       3.065190        83.4081 
 168   0.0000       3.652391        99.3866 
 169   0.0000       3.684109       100.2497 
 170   0.0000       3.687297       100.3365 
 171   0.0000       3.694352       100.5284 
 172   0.0000       3.703299       100.7719 
 173   0.0000       3.715189       101.0954 
 174   0.0000       3.735353       101.6441 
 175   0.0000       3.738386       101.7266 
 176   0.0000       3.753998       102.1515 
 177   0.0000       3.778411       102.8158 
 178   0.0000       3.789400       103.1148 
 179   0.0000       3.883471       105.6746 
 180   0.0000       3.928220       106.8923 
 181   0.0000       3.963459       107.8512 
 182   0.0000       4.018547       109.3502 
 183   0.0000       4.049559       110.1941 
 184   0.0000       4.067558       110.6839 
 185   0.0000       4.099221       111.5455 
 186   0.0000       4.151669       112.9726 
 187   0.0000       4.157762       113.1385 
 188   0.0000       4.287266       116.6624 
 189   0.0000       4.380667       119.2040 
 190   0.0000       4.486412       122.0815 
 191   0.0000       4.508205       122.6745 
 192   0.0000       4.530184       123.2726 
 193   0.0000       4.599809       125.1672 
 194   0.0000       4.779411       130.0544 
 195   0.0000       7.310532       198.9297 
 196   0.0000       7.322225       199.2479 
 197   0.0000       7.325437       199.3353 
 198   0.0000       7.331665       199.5047 
 199   0.0000       7.334540       199.5830 
 200   0.0000       7.336135       199.6264 
 201   0.0000       7.339037       199.7054 
 202   0.0000       7.343803       199.8350 
 203   0.0000       7.346514       199.9088 
 204   0.0000       7.346614       199.9115 
 205   0.0000       7.347834       199.9447 
 206   0.0000       7.348280       199.9569 
 207   0.0000       7.348837       199.9720 
 208   0.0000       7.353885       200.1094 
 209   0.0000       7.356770       200.1879 
 210   0.0000       7.363334       200.3665 
 211   0.0000       7.364766       200.4055 
 212   0.0000       7.364990       200.4116 
 213   0.0000       7.367129       200.4698 
 214   0.0000       7.367303       200.4745 
 215   0.0000       7.367873       200.4900 
 216   0.0000       7.368703       200.5126 
 217   0.0000       7.371532       200.5896 
 218   0.0000       7.371691       200.5939 
 219   0.0000       7.374425       200.6683 
 220   0.0000       7.377597       200.7546 
 221   0.0000       7.380410       200.8312 
 222   0.0000       7.392235       201.1529 
 223   0.0000       7.402106       201.4216 
 224   0.0000       7.405538       201.5149 
 225   0.0000       7.413910       201.7427 
 226   0.0000       7.416863       201.8231 
 227   0.0000       7.429103       202.1562 
 228   0.0000       7.433052       202.2636 
 229   0.0000       7.441202       202.4854 
 230   0.0000       8.106675       220.5938 
 231   0.0000       8.151097       221.8026 
 232   0.0000       8.256542       224.6719 
 233   0.0000       8.824483       240.1264 
 234   0.0000       8.828138       240.2258 
 235   0.0000       8.831672       240.3220 
 236   0.0000       8.840845       240.5716 
 237   0.0000       8.847223       240.7452 
 238   0.0000       8.848293       240.7743 
 239   0.0000       8.855042       240.9580 
 240   0.0000       8.872221       241.4254 
 241   0.0000       8.876475       241.5412 
 242   0.0000       8.880182       241.6420 
 243   0.0000       8.884462       241.7585 
 244   0.0000       8.885973       241.7996 
 245   0.0000       8.893744       242.0111 
 246   0.0000       8.932572       243.0676 
 247   0.0000       8.953754       243.6440 
 248   0.0000       8.980390       244.3688 
 249   0.0000       9.019826       245.4419 
 250   0.0000       9.063031       246.6176 
 251   0.0000       9.084057       247.1898 
 252   0.0000       9.097578       247.5577 
 253   0.0000       9.098381       247.5795 
 254   0.0000       9.143168       248.7982 
 255   0.0000       9.144478       248.8339 
 256   0.0000       9.162700       249.3297 
 257   0.0000       9.220843       250.9119 
 258   0.0000       9.259376       251.9604 
 259   0.0000       9.340488       254.1676 
 260   0.0000       9.406699       255.9693 
 261   0.0000       9.484147       258.0768 
 262   0.0000       9.490543       258.2508 
 263   0.0000       9.808271       266.8966 
 264   0.0000      13.563221       369.0740 
 265   0.0000      13.576614       369.4384 
 266   0.0000      13.601787       370.1234 
 267   0.0000      13.644077       371.2742 
 268   0.0000      13.689097       372.4993 
 269   0.0000      13.740745       373.9047 
 270   0.0000      13.768805       374.6682 
 271   0.0000      19.809993       539.0573 
 272   0.0000      19.831099       539.6316 
 273   0.0000      19.847233       540.0707 
 274   0.0000      19.949824       542.8623 
 275   0.0000      20.009029       544.4734 
 276   0.0000      44.138405      1201.0671 
 277   0.0000      46.669262      1269.9352 
 278   0.0000      46.681113      1270.2577 
 279   0.0000      46.711871      1271.0946 
 280   0.0000      46.756026      1272.2961 
 281   0.0000      46.845691      1274.7361 
 282   0.0000      47.325360      1287.7885 
 283   0.0000      47.348850      1288.4277 
 284   0.0000      47.427616      1290.5711 
 285   0.0000      53.132585      1445.8111 
 286   0.0000      53.139873      1446.0094 
 287   0.0000      53.153028      1446.3674 
 288   0.0000      53.170898      1446.8537 
 289   0.0000      53.197775      1447.5851 
 290   0.0000      53.225596      1448.3421 
 291   0.0000      53.234544      1448.5856 
 292   0.0000     102.963883      2801.7897 
 293   0.0000     102.981511      2802.2694 
 294   0.0000     103.002152      2802.8310 
 295   0.0000     103.099270      2805.4738 
 296   0.0000     103.161675      2807.1719 
 297   0.0000     205.006761      5578.5176 
 298   0.0000     235.903274      6419.2544 
 299   0.0000     235.909612      6419.4269 
 300   0.0000     235.927060      6419.9017 
 301   0.0000     235.955382      6420.6724 
 302   0.0000     236.003528      6421.9825 
 303   0.0000     264.268393      7191.1086 
 304   0.0000     264.289058      7191.6709 
 305   0.0000     264.348215      7193.2806 
 306   0.0000     792.438432     21563.3460 
 307   0.0000    1085.598876     29540.6472 
 308   0.0000    1085.613151     29541.0357 
 309   0.0000    1085.657202     29542.2344 
 310   0.0000    2430.667275     66141.8191 
 311   0.0000    3783.338056    102949.8624 
 312   0.0000    3783.348141    102950.1368 
 313   0.0000    3783.381115    102951.0341 
 314   0.0000    6095.646615    165870.9771 
 315   0.0000   13027.265262    354489.9097 
 316   0.0000   24922.188399    678167.2237 
 317   0.0000   43992.414574   1197094.4597 
 318   0.0000   84401.534070   2296682.5031 

                    ********************************
                    * MULLIKEN POPULATION ANALYSIS *
                    ********************************

--------------------------------------------
MULLIKEN ATOMIC CHARGES AND SPIN POPULATIONS
--------------------------------------------
   0 U :    2.899124    1.019865
   1 F :   -0.563335   -0.014607
   2 F :   -0.563391   -0.014624
   3 F :   -0.590377    0.003750
   4 F :   -0.591651    0.001776
   5 F :   -0.590369    0.003840
Sum of atomic charges         :   -0.0000000
Sum of atomic spin populations:    1.0000000

-----------------------------------------------------
MULLIKEN REDUCED ORBITAL CHARGES AND SPIN POPULATIONS
-----------------------------------------------------
CHARGE
  0 U s       :    12.095507  s :    12.095507
      pz      :    10.025203  p :    30.061070
      px      :    10.015277
      py      :    10.020590
      dz2     :     6.281535  d :    31.116921
      dxz     :     6.207399
      dyz     :     6.184386
      dx2y2   :     6.208066
      dxy     :     6.235535
      f0      :     2.258245  f :    15.827378
      f+1     :     2.179884
      f-1     :     2.140225
      f+2     :     2.026709
      f-2     :     2.053557
      f+3     :     3.033293
      f-3     :     2.135464
  1 F s       :     4.007757  s :     4.007757
      pz      :     1.774779  p :     5.545508
      px      :     1.891601
      py      :     1.879129
      dz2     :     0.004165  d :     0.009835
      dxz     :     0.002701
      dyz     :     0.002925
      dx2y2   :     0.000030
      dxy     :     0.000015
      f0      :     0.000123  f :     0.000235
      f+1     :     0.000056
      f-1     :     0.000054
      f+2     :     0.000001
      f-2     :     0.000001
      f+3     :     0.000000
      f-3     :     0.000000
  2 F s       :     4.007771  s :     4.007771
      pz      :     1.774805  p :     5.545549
      px      :     1.891620
      py      :     1.879124
      dz2     :     0.004164  d :     0.009836
      dxz     :     0.002701
      dyz     :     0.002926
      dx2y2   :     0.000030
      dxy     :     0.000014
      f0      :     0.000123  f :     0.000235
      f+1     :     0.000056
      f-1     :     0.000054
      f+2     :     0.000001
      f-2     :     0.000001
      f+3     :     0.000000
      f-3     :     0.000000
  3 F s       :     4.004922  s :     4.004922
      pz      :     1.894681  p :     5.576821
      px      :     1.845105
      py      :     1.837035
      dz2     :     0.000863  d :     0.008437
      dxz     :     0.001124
      dyz     :     0.001308
      dx2y2   :     0.002533
      dxy     :     0.002609
      f0      :     0.000017  f :     0.000198
      f+1     :     0.000019
      f-1     :     0.000022
      f+2     :     0.000000
      f-2     :     0.000027
      f+3     :     0.000057
      f-3     :     0.000055
  4 F s       :     4.003869  s :     4.003869
      pz      :     1.899951  p :     5.579547
      px      :     1.795645
      py      :     1.883951
      dz2     :     0.000872  d :     0.008056
      dxz     :     0.002177
      dyz     :     0.000006
      dx2y2   :     0.002586
      dxy     :     0.002416
      f0      :     0.000017  f :     0.000178
      f+1     :     0.000037
      f-1     :     0.000003
      f+2     :     0.000022
      f-2     :     0.000000
      f+3     :     0.000064
      f-3     :     0.000035
  5 F s       :     4.004943  s :     4.004943
      pz      :     1.894639  p :     5.576789
      px      :     1.844881
      py      :     1.837269
      dz2     :     0.000863  d :     0.008439
      dxz     :     0.001131
      dyz     :     0.001303
      dx2y2   :     0.002534
      dxy     :     0.002608
      f0      :     0.000017  f :     0.000198
      f+1     :     0.000019
      f-1     :     0.000022
      f+2     :     0.000000
      f-2     :     0.000027
      f+3     :     0.000057
      f-3     :     0.000055

SPIN
  0 U s       :     0.015672  s :     0.015672
      pz      :    -0.002852  p :     0.006785
      px      :     0.006200
      py      :     0.003436
      dz2     :     0.018655  d :     0.037180
      dxz     :     0.002510
      dyz     :     0.002685
      dx2y2   :     0.005578
      dxy     :     0.007752
      f0      :     0.014985  f :     0.960228
      f+1     :     0.011936
      f-1     :     0.000936
      f+2     :     0.000639
      f-2     :     0.001471
      f+3     :     0.926814
      f-3     :     0.003448
  1 F s       :     0.000217  s :     0.000217
      pz      :    -0.007244  p :    -0.015012
      px      :    -0.003291
      py      :    -0.004477
      dz2     :     0.000098  d :     0.000185
      dxz     :     0.000037
      dyz     :     0.000049
      dx2y2   :     0.000001
      dxy     :     0.000001
      f0      :     0.000002  f :     0.000003
      f+1     :     0.000000
      f-1     :     0.000000
      f+2     :     0.000000
      f-2     :     0.000000
      f+3     :     0.000000
      f-3     :    -0.000000
  2 F s       :     0.000216  s :     0.000216
      pz      :    -0.007252  p :    -0.015028
      px      :    -0.003295
      py      :    -0.004481
      dz2     :     0.000098  d :     0.000186
      dxz     :     0.000037
      dyz     :     0.000050
      dx2y2   :     0.000000
      dxy     :     0.000001
      f0      :     0.000002  f :     0.000003
      f+1     :     0.000000
      f-1     :     0.000000
      f+2     :     0.000000
      f-2     :     0.000000
      f+3     :     0.000000
      f-3     :    -0.000000
  3 F s       :     0.000169  s :     0.000169
      pz      :    -0.001007  p :     0.003461
      px      :     0.007204
      py      :    -0.002736
      dz2     :    -0.000007  d :     0.000105
      dxz     :     0.000006
      dyz     :     0.000005
      dx2y2   :     0.000026
      dxy     :     0.000075
      f0      :     0.000000  f :     0.000015
      f+1     :     0.000002
      f-1     :     0.000001
      f+2     :    -0.000000
      f-2     :     0.000000
      f+3     :     0.000003
      f-3     :     0.000010
  4 F s       :     0.000075  s :     0.000075
      pz      :    -0.000980  p :     0.001538
      px      :     0.007403
      py      :    -0.004885
      dz2     :    -0.000000  d :     0.000148
      dxz     :     0.000009
      dyz     :     0.000000
      dx2y2   :     0.000113
      dxy     :     0.000027
      f0      :     0.000000  f :     0.000015
      f+1     :     0.000002
      f-1     :     0.000000
      f+2     :     0.000000
      f-2     :     0.000000
      f+3     :     0.000012
      f-3     :     0.000001
  5 F s       :     0.000175  s :     0.000175
      pz      :    -0.001008  p :     0.003544
      px      :     0.007356
      py      :    -0.002804
      dz2     :    -0.000007  d :     0.000105
      dxz     :     0.000006
      dyz     :     0.000005
      dx2y2   :     0.000026
      dxy     :     0.000075
      f0      :     0.000000  f :     0.000015
      f+1     :     0.000002
      f-1     :     0.000001
      f+2     :    -0.000000
      f-2     :     0.000000
      f+3     :     0.000003
      f-3     :     0.000010


                     *******************************
                     * LOEWDIN POPULATION ANALYSIS *
                     *******************************

-------------------------------------------
LOEWDIN ATOMIC CHARGES AND SPIN POPULATIONS
-------------------------------------------
   0 U :    1.006810    1.018122
   1 F :   -0.176442   -0.015461
   2 F :   -0.176482   -0.015481
   3 F :   -0.212760    0.004839
   4 F :   -0.228325    0.003038
   5 F :   -0.212800    0.004943

----------------------------------------------------
LOEWDIN REDUCED ORBITAL CHARGES AND SPIN POPULATIONS
----------------------------------------------------
CHARGE
  0 U s       :    12.118217  s :    12.118217
      pz      :    10.064437  p :    30.174167
      px      :    10.060236
      py      :    10.049494
      dz2     :     6.569195  d :    31.923248
      dxz     :     6.297918
      dyz     :     6.264778
      dx2y2   :     6.353009
      dxy     :     6.438349
      f0      :     2.531672  f :    16.777557
      f+1     :     2.353584
      f-1     :     2.277426
      f+2     :     2.052488
      f-2     :     2.109515
      f+3     :     3.182768
      f-3     :     2.270103
  1 F s       :     3.729352  s :     3.729352
      pz      :     1.805037  p :     5.427146
      px      :     1.818667
      py      :     1.803442
      dz2     :     0.014054  d :     0.019342
      dxz     :     0.002612
      dyz     :     0.002603
      dx2y2   :     0.000045
      dxy     :     0.000027
      f0      :     0.000425  f :     0.000602
      f+1     :     0.000090
      f-1     :     0.000081
      f+2     :     0.000003
      f-2     :     0.000002
      f+3     :     0.000001
      f-3     :     0.000000
  2 F s       :     3.729352  s :     3.729352
      pz      :     1.805078  p :     5.427183
      px      :     1.818674
      py      :     1.803431
      dz2     :     0.014054  d :     0.019345
      dxz     :     0.002614
      dyz     :     0.002605
      dx2y2   :     0.000045
      dxy     :     0.000027
      f0      :     0.000425  f :     0.000602
      f+1     :     0.000090
      f-1     :     0.000082
      f+2     :     0.000003
      f-2     :     0.000002
      f+3     :     0.000001
      f-3     :     0.000000
  3 F s       :     3.735461  s :     3.735461
      pz      :     1.822352  p :     5.460187
      px      :     1.819420
      py      :     1.818415
      dz2     :     0.002979  d :     0.016593
      dxz     :     0.001017
      dyz     :     0.001205
      dx2y2   :     0.002586
      dxy     :     0.008805
      f0      :     0.000028  f :     0.000520
      f+1     :     0.000063
      f-1     :     0.000076
      f+2     :     0.000001
      f-2     :     0.000042
      f+3     :     0.000175
      f-3     :     0.000134
  4 F s       :     3.742613  s :     3.742613
      pz      :     1.831886  p :     5.469920
      px      :     1.824849
      py      :     1.813184
      dz2     :     0.002867  d :     0.015331
      dxz     :     0.001913
      dyz     :     0.000018
      dx2y2   :     0.008293
      dxy     :     0.002240
      f0      :     0.000024  f :     0.000461
      f+1     :     0.000125
      f-1     :     0.000005
      f+2     :     0.000034
      f-2     :     0.000001
      f+3     :     0.000209
      f-3     :     0.000063
  5 F s       :     3.735427  s :     3.735427
      pz      :     1.822273  p :     5.460243
      px      :     1.819538
      py      :     1.818432
      dz2     :     0.002980  d :     0.016611
      dxz     :     0.001025
      dyz     :     0.001201
      dx2y2   :     0.002585
      dxy     :     0.008819
      f0      :     0.000028  f :     0.000520
      f+1     :     0.000063
      f-1     :     0.000076
      f+2     :     0.000001
      f-2     :     0.000042
      f+3     :     0.000174
      f-3     :     0.000136

SPIN
  0 U s       :     0.019765  s :     0.019765
      pz      :    -0.002059  p :     0.006925
      px      :     0.005543
      py      :     0.003441
      dz2     :     0.017266  d :     0.037111
      dxz     :     0.002190
      dyz     :     0.002509
      dx2y2   :     0.006440
      dxy     :     0.008706
      f0      :     0.014277  f :     0.954322
      f+1     :     0.011396
      f-1     :     0.000436
      f+2     :     0.000645
      f-2     :     0.001530
      f+3     :     0.922967
      f-3     :     0.003071
  1 F s       :    -0.000584  s :    -0.000584
      pz      :    -0.006924  p :    -0.014887
      px      :    -0.003366
      py      :    -0.004597
      dz2     :     0.000008  d :     0.000012
      dxz     :    -0.000001
      dyz     :     0.000004
      dx2y2   :     0.000000
      dxy     :     0.000000
      f0      :     0.000001  f :    -0.000002
      f+1     :    -0.000001
      f-1     :    -0.000002
      f+2     :     0.000000
      f-2     :     0.000000
      f+3     :     0.000000
      f-3     :    -0.000000
  2 F s       :    -0.000585  s :    -0.000585
      pz      :    -0.006931  p :    -0.014905
      px      :    -0.003368
      py      :    -0.004605
      dz2     :     0.000007  d :     0.000011
      dxz     :    -0.000001
      dyz     :     0.000004
      dx2y2   :     0.000000
      dxy     :     0.000000
      f0      :     0.000001  f :    -0.000002
      f+1     :    -0.000001
      f-1     :    -0.000002
      f+2     :     0.000000
      f-2     :     0.000000
      f+3     :     0.000000
      f-3     :    -0.000000
  3 F s       :     0.000435  s :     0.000435
      pz      :    -0.000838  p :     0.003851
      px      :     0.007123
      py      :    -0.002433
      dz2     :     0.000030  d :     0.000507
      dxz     :     0.000009
      dyz     :     0.000009
      dx2y2   :     0.000114
      dxy     :     0.000345
      f0      :     0.000000  f :     0.000045
      f+1     :     0.000005
      f-1     :     0.000003
      f+2     :     0.000000
      f-2     :     0.000001
      f+3     :     0.000008
      f-3     :     0.000029
  4 F s       :     0.000421  s :     0.000421
      pz      :    -0.000787  p :     0.002137
      px      :     0.007080
      py      :    -0.004156
      dz2     :     0.000017  d :     0.000441
      dxz     :     0.000018
      dyz     :    -0.000000
      dx2y2   :     0.000347
      dxy     :     0.000059
      f0      :     0.000000  f :     0.000039
      f+1     :     0.000005
      f-1     :     0.000000
      f+2     :     0.000001
      f-2     :     0.000000
      f+3     :     0.000031
      f-3     :     0.000002
  5 F s       :     0.000437  s :     0.000437
      pz      :    -0.000838  p :     0.003952
      px      :     0.007274
      py      :    -0.002484
      dz2     :     0.000030  d :     0.000509
      dxz     :     0.000009
      dyz     :     0.000009
      dx2y2   :     0.000117
      dxy     :     0.000344
      f0      :     0.000000  f :     0.000045
      f+1     :     0.000005
      f-1     :     0.000003
      f+2     :     0.000000
      f-2     :     0.000001
      f+3     :     0.000008
      f-3     :     0.000029


                      *****************************
                      * MAYER POPULATION ANALYSIS *
                      *****************************

  NA   - Mulliken gross atomic population
  ZA   - Total nuclear charge
  QA   - Mulliken gross atomic charge
  VA   - Mayer's total valence
  BVA  - Mayer's bonded valence
  FA   - Mayer's free valence

  ATOM       NA         ZA         QA         VA         BVA        FA
  0 U     89.1009    92.0000     2.8991     4.1961     3.2428     0.9533
  1 F      9.5633     9.0000    -0.5633     0.6971     0.6969     0.0001
  2 F      9.5634     9.0000    -0.5634     0.6970     0.6968     0.0001
  3 F      9.5904     9.0000    -0.5904     0.6414     0.6412     0.0001
  4 F      9.5917     9.0000    -0.5917     0.6358     0.6357     0.0001
  5 F      9.5904     9.0000    -0.5904     0.6415     0.6413     0.0001

  Mayer bond orders larger than 0.1
B(  0-U ,  1-F ) :   0.6804 B(  0-U ,  2-F ) :   0.6803 B(  0-U ,  3-F ) :   0.6236 
B(  0-U ,  4-F ) :   0.6349 B(  0-U ,  5-F ) :   0.6236 

-------
TIMINGS
-------

Total SCF time: 0 days 0 hours 2 min 22 sec 

Total time                  ....     142.854 sec
Sum of individual times     ....     140.974 sec  ( 98.7%)

Fock matrix formation       ....     121.233 sec  ( 84.9%)
Diagonalization             ....      12.443 sec  (  8.7%)
Density matrix formation    ....       0.187 sec  (  0.1%)
Population analysis         ....       0.197 sec  (  0.1%)
Initial guess               ....       0.180 sec  (  0.1%)
Orbital Transformation      ....       0.000 sec  (  0.0%)
Orbital Orthonormalization  ....       0.000 sec  (  0.0%)
DIIS solution               ....       6.625 sec  (  4.6%)


           ************************************************************
           *        Program running with 42 parallel MPI-processes    *
           *              working on a common directory               *
           ************************************************************

------------------------------------------------------------------------------
                                ORCA  MP2 
------------------------------------------------------------------------------

Freezing NCore=78 chemical core electrons
MP2 will be done in the AO integral direct mode
The Q1-step will be done using symmetric double matrices
Dimension of the basis                    ...  319
Memory devoted for MP2                    ... 13500 MB   
Memory needed for all in one shot         ...  125 MB
Number of MOs that can be treated together...  107      
MP2 density construction                  ... relaxed
The MP2 gradient is requested => amplitudes will be stored on disk
Total number of MOs              ...   30
Number of MOs treated per batch  ...    1 
Number of batches necessary      ...    1 
[...]
      dx2y2   :     0.004984
      dxy     :     0.004947
      f0      :     0.000421  f :     0.002355
      f+1     :     0.000365
      f-1     :     0.000371
      f+2     :     0.000309
      f-2     :     0.000308
      f+3     :     0.000290
      f-3     :     0.000291
  2 F s       :     3.999221  s :     3.999221
      pz      :     1.743274  p :     5.410059
      px      :     1.842025
      py      :     1.824759
      dz2     :     0.008779  d :     0.033892
      dxz     :     0.007485
      dyz     :     0.007696
      dx2y2   :     0.004984
      dxy     :     0.004947
      f0      :     0.000421  f :     0.002355
      f+1     :     0.000365
      f-1     :     0.000371
      f+2     :     0.000309
      f-2     :     0.000308
      f+3     :     0.000290
      f-3     :     0.000291
  3 F s       :     4.001440  s :     4.001440
      pz      :     1.847210  p :     5.437973
      px      :     1.821052
      py      :     1.769711
      dz2     :     0.005790  d :     0.033619
      dxz     :     0.005605
      dyz     :     0.006923
      dx2y2   :     0.007622
      dxy     :     0.007680
      f0      :     0.000319  f :     0.002349
      f+1     :     0.000308
      f-1     :     0.000336
      f+2     :     0.000314
      f-2     :     0.000329
      f+3     :     0.000381
      f-3     :     0.000361
  4 F s       :     3.999218  s :     3.999218
      pz      :     1.850783  p :     5.410073
      px      :     1.747538
      py      :     1.811752
      dz2     :     0.005929  d :     0.033891
      dxz     :     0.007148
      dyz     :     0.005232
      dx2y2   :     0.007886
      dxy     :     0.007696
      f0      :     0.000321  f :     0.002355
      f+1     :     0.000349
      f-1     :     0.000303
      f+2     :     0.000322
      f-2     :     0.000319
      f+3     :     0.000367
      f-3     :     0.000374
  5 F s       :     3.999225  s :     3.999225
      pz      :     1.850758  p :     5.410036
      px      :     1.775652
      py      :     1.783626
      dz2     :     0.005929  d :     0.033894
      dxz     :     0.006411
      dyz     :     0.005970
      dx2y2   :     0.007708
      dxy     :     0.007875
      f0      :     0.000321  f :     0.002355
      f+1     :     0.000331
      f-1     :     0.000321
      f+2     :     0.000308
      f-2     :     0.000334
      f+3     :     0.000367
      f-3     :     0.000374

SPIN
  0 U s       :     0.005093  s :     0.005093
      pz      :    -0.003725  p :    -0.006416
      px      :    -0.002525
      py      :    -0.000167
      dz2     :     0.001659  d :     0.042797
      dxz     :     0.015146
      dyz     :     0.013106
      dx2y2   :     0.009302
      dxy     :     0.003585
      f0      :     0.028338  f :     1.063022
      f+1     :     0.011799
      f-1     :     0.008800
      f+2     :     0.742315
      f-2     :     0.244231
      f+3     :     0.008922
      f-3     :     0.018616
  1 F s       :    -0.000067  s :    -0.000067
      pz      :    -0.012147  p :    -0.022024
      px      :    -0.004189
      py      :    -0.005688
      dz2     :    -0.000013  d :     0.000055
      dxz     :     0.000016
      dyz     :     0.000012
      dx2y2   :     0.000034
      dxy     :     0.000006
      f0      :    -0.000001  f :    -0.000001
      f+1     :     0.000001
      f-1     :    -0.000000
      f+2     :     0.000001
      f-2     :    -0.000001
      f+3     :    -0.000001
      f-3     :    -0.000000
  2 F s       :    -0.000067  s :    -0.000067
      pz      :    -0.012146  p :    -0.022023
      px      :    -0.004189
      py      :    -0.005688
      dz2     :    -0.000013  d :     0.000055
      dxz     :     0.000016
      dyz     :     0.000012
      dx2y2   :     0.000034
      dxy     :     0.000006
      f0      :    -0.000001  f :    -0.000001
      f+1     :     0.000001
      f-1     :    -0.000000
      f+2     :     0.000001
      f-2     :    -0.000001
      f+3     :    -0.000001
      f-3     :    -0.000000
  3 F s       :    -0.000274  s :    -0.000274
      pz      :    -0.004232  p :    -0.016126
      px      :    -0.005098
      py      :    -0.006795
      dz2     :    -0.000009  d :     0.000057
      dxz     :     0.000059
      dyz     :     0.000021
      dx2y2   :    -0.000003
      dxy     :    -0.000011
      f0      :    -0.000000  f :     0.000002
      f+1     :    -0.000000
      f-1     :    -0.000001
      f+2     :     0.000003
      f-2     :     0.000001
      f+3     :    -0.000000
      f-3     :    -0.000000
  4 F s       :    -0.000066  s :    -0.000066
      pz      :    -0.003428  p :    -0.022025
      px      :    -0.013033
      py      :    -0.005564
      dz2     :    -0.000006  d :     0.000055
      dxz     :    -0.000005
      dyz     :     0.000071
      dx2y2   :     0.000001
      dxy     :    -0.000005
      f0      :    -0.000000  f :    -0.000001
      f+1     :    -0.000001
      f-1     :    -0.000001
      f+2     :    -0.000001
      f-2     :     0.000003
      f+3     :    -0.000001
      f-3     :    -0.000001
  5 F s       :    -0.000067  s :    -0.000067
      pz      :    -0.003434  p :    -0.022033
      px      :    -0.008396
      py      :    -0.010202
      dz2     :    -0.000006  d :     0.000055
      dxz     :     0.000056
      dyz     :     0.000010
      dx2y2   :     0.000008
      dxy     :    -0.000012
      f0      :    -0.000000  f :    -0.000001
      f+1     :    -0.000001
      f-1     :    -0.000001
      f+2     :     0.000003
      f-2     :    -0.000001
      f+3     :    -0.000001
      f-3     :    -0.000001


                     *******************************
                     * LOEWDIN POPULATION ANALYSIS *
                     *******************************

-----------------------------------------
LOEWDIN ATOMIC CHARGES AND SPIN DENSITIES
-----------------------------------------
   0 U :    0.471351    1.096142
   1 F :   -0.090867   -0.020529
   2 F :   -0.090853   -0.020528
   3 F :   -0.107962   -0.014017
   4 F :   -0.090869   -0.020531
   5 F :   -0.090800   -0.020538

--------------------------------------------------
LOEWDIN REDUCED ORBITAL CHARGES AND SPIN DENSITIES
--------------------------------------------------
CHARGE
  0 U s       :    12.102342  s :    12.102342
      pz      :    10.036033  p :    30.101083
      px      :    10.034265
      py      :    10.030786
      dz2     :     6.557217  d :    32.136987
      dxz     :     6.359511
      dyz     :     6.355548
      dx2y2   :     6.392270
      dxy     :     6.472441
      f0      :     2.553479  f :    17.188236
      f+1     :     2.363838
      f-1     :     2.330855
      f+2     :     2.821594
      f-2     :     2.412069
      f+3     :     2.319163
      f-3     :     2.387239
  1 F s       :     3.730232  s :     3.730232
      pz      :     1.772847  p :     5.314068
      px      :     1.777700
      py      :     1.763521
      dz2     :     0.017474  d :     0.043844
      dxz     :     0.007815
      dyz     :     0.008517
      dx2y2   :     0.005028
      dxy     :     0.005011
      f0      :     0.000654  f :     0.002723
      f+1     :     0.000413
      f-1     :     0.000442
      f+2     :     0.000316
      f-2     :     0.000315
      f+3     :     0.000291
      f-3     :     0.000292
  2 F s       :     3.730229  s :     3.730229
      pz      :     1.772836  p :     5.314055
      px      :     1.777716
      py      :     1.763503
      dz2     :     0.017476  d :     0.043846
      dxz     :     0.007815
      dyz     :     0.008515
      dx2y2   :     0.005028
      dxy     :     0.005011
      f0      :     0.000654  f :     0.002723
      f+1     :     0.000413
      f-1     :     0.000442
      f+2     :     0.000316
      f-2     :     0.000315
      f+3     :     0.000291
      f-3     :     0.000292
  3 F s       :     3.728428  s :     3.728428
      pz      :     1.779603  p :     5.333854
      px      :     1.778349
      py      :     1.775902
      dz2     :     0.008058  d :     0.042971
      dxz     :     0.005672
      dyz     :     0.007044
      dx2y2   :     0.009390
      dxy     :     0.012807
      f0      :     0.000337  f :     0.002708
      f+1     :     0.000336
      f-1     :     0.000411
      f+2     :     0.000326
      f-2     :     0.000351
      f+3     :     0.000545
      f-3     :     0.000403
  4 F s       :     3.730241  s :     3.730241
      pz      :     1.784916  p :     5.314064
      px      :     1.769808
      py      :     1.759340
      dz2     :     0.008485  d :     0.043842
      dxz     :     0.007192
      dyz     :     0.005301
      dx2y2   :     0.012344
      dxy     :     0.010520
      f0      :     0.000335  f :     0.002723
      f+1     :     0.000449
      f-1     :     0.000318
      f+2     :     0.000336
      f-2     :     0.000335
      f+3     :     0.000444
      f-3     :     0.000505
  5 F s       :     3.730218  s :     3.730218
      pz      :     1.784879  p :     5.314010
      px      :     1.767528
      py      :     1.761604
      dz2     :     0.008486  d :     0.043849
      dxz     :     0.006504
      dyz     :     0.005990
      dx2y2   :     0.007918
      dxy     :     0.014950
      f0      :     0.000335  f :     0.002723
      f+1     :     0.000398
      f-1     :     0.000370
      f+2     :     0.000315
      f-2     :     0.000356
      f+3     :     0.000446
      f-3     :     0.000503

SPIN
  0 U s       :     0.000976  s :     0.000976
      pz      :    -0.001203  p :     0.000309
      px      :    -0.000216
      py      :     0.001728
      dz2     :     0.000869  d :     0.036559
      dxz     :     0.014063
      dyz     :     0.011648
      dx2y2   :     0.007750
      dxy     :     0.002228
      f0      :     0.027011  f :     1.058298
      f+1     :     0.011293
      f-1     :     0.008426
      f+2     :     0.741332
      f-2     :     0.243868
      f+3     :     0.008569
      f-3     :     0.017798
  1 F s       :    -0.000695  s :    -0.000695
      pz      :    -0.010945  p :    -0.019829
      px      :    -0.003632
      py      :    -0.005252
      dz2     :    -0.000146  d :    -0.000008
      dxz     :     0.000061
      dyz     :     0.000010
      dx2y2   :     0.000055
      dxy     :     0.000013
      f0      :    -0.000004  f :     0.000003
      f+1     :     0.000004
      f-1     :    -0.000000
      f+2     :     0.000003
      f-2     :     0.000000
      f+3     :    -0.000001
      f-3     :    -0.000000
  2 F s       :    -0.000695  s :    -0.000695
      pz      :    -0.010944  p :    -0.019828
      px      :    -0.003632
      py      :    -0.005251
      dz2     :    -0.000146  d :    -0.000008
      dxz     :     0.000061
      dyz     :     0.000010
      dx2y2   :     0.000055
      dxy     :     0.000013
      f0      :    -0.000004  f :     0.000003
      f+1     :     0.000004
      f-1     :    -0.000000
      f+2     :     0.000003
      f-2     :     0.000000
      f+3     :    -0.000001
      f-3     :    -0.000000
  3 F s       :    -0.000435  s :    -0.000435
      pz      :    -0.003518  p :    -0.013706
      px      :    -0.004314
      py      :    -0.005873
      dz2     :    -0.000029  d :     0.000115
      dxz     :     0.000105
      dyz     :     0.000067
      dx2y2   :     0.000017
      dxy     :    -0.000045
      f0      :     0.000001  f :     0.000009
      f+1     :    -0.000001
      f-1     :    -0.000001
      f+2     :     0.000008
      f-2     :     0.000003
      f+3     :    -0.000002
      f-3     :     0.000002
  4 F s       :    -0.000695  s :    -0.000695
      pz      :    -0.002811  p :    -0.019831
      px      :    -0.011981
      py      :    -0.005040
      dz2     :    -0.000052  d :    -0.000008
      dxz     :     0.000031
      dyz     :     0.000131
      dx2y2   :    -0.000105
      dxy     :    -0.000013
      f0      :     0.000001  f :     0.000003
      f+1     :    -0.000003
      f-1     :    -0.000001
      f+2     :     0.000000
      f-2     :     0.000009
      f+3     :    -0.000002
      f-3     :    -0.000002
  5 F s       :    -0.000695  s :    -0.000695
      pz      :    -0.002816  p :    -0.019838
      px      :    -0.007462
      py      :    -0.009560
      dz2     :    -0.000052  d :    -0.000008
      dxz     :     0.000137
      dyz     :     0.000025
      dx2y2   :     0.000031
      dxy     :    -0.000149
      f0      :     0.000001  f :     0.000003
      f+1     :    -0.000002
      f-1     :    -0.000002
      f+2     :     0.000008
      f-2     :     0.000001
      f+3     :    -0.000002
      f-3     :    -0.000002


                      *****************************
                      * MAYER POPULATION ANALYSIS *
                      *****************************

  NA   - Mulliken gross atomic population
  ZA   - Total nuclear charge
  QA   - Mulliken gross atomic charge
  VA   - Mayer's total valence
  BVA  - Mayer's bonded valence
  FA   - Mayer's free valence

  ATOM       NA         ZA         QA         VA         BVA        FA
  0 U     89.7425    92.0000     2.2575     5.9891     3.9250     2.0641
  1 F      9.4456     9.0000    -0.4456     1.2246     0.8141     0.4105
  2 F      9.4455     9.0000    -0.4455     1.2246     0.8141     0.4105
  3 F      9.4754     9.0000    -0.4754     1.1877     0.7779     0.4099
  4 F      9.4455     9.0000    -0.4455     1.2246     0.8142     0.4105
  5 F      9.4455     9.0000    -0.4455     1.2247     0.8142     0.4105

  Mayer bond orders larger than 0.1
B(  0-U ,  1-F ) :   0.7959 B(  0-U ,  2-F ) :   0.7960 B(  0-U ,  3-F ) :   0.7411 
B(  0-U ,  4-F ) :   0.7960 B(  0-U ,  5-F ) :   0.7960 


----------------------------------
MP2 DERIVATIVE INTEGRAL GENERATION
----------------------------------


Input Wavefunction Amplitudes       ... /home/nikolayandreadi_2125/_scratch/MP2/UF5.mp2tbb.tmp.proc41
Input Correlated Electron Density   ... /home/nikolayandreadi_2125/_scratch/MP2/UF5.pmp2re
Input Energy Weighted Density       ... /home/nikolayandreadi_2125/_scratch/MP2/UF5.wmp2.tmp
Input SCF Electron Density          ... /home/nikolayandreadi_2125/_scratch/MP2/UF5.scfp.tmp

One-Electron Terms    ...
                        ... One-Electron Terms done
Prescreening matrices              ... done

Batch handling in the gradient evaluation:
Memory available                      ... 13500.0 MB
Memory per occupied orbital in Q2     ...   45.8 MB
Memory per occupied orbital in Q3     ...    0.1 MB
Total memory requirement per |i>      ...   45.9 MB
Max. Number of orbitals possible      ...    293
Number of orbitals treated per batch  ...     59
Number of batches to be done          ...      1
Batch   0: i=   39 ...    97

---------------------------------------
MP2 TOTAL ENERGY:   -28449.247624770 Eh
---------------------------------------

-----------------------------------
NORM OF THE MP2 GRADIENT:  0.000063
-----------------------------------

-------------------------   --------------------
FINAL SINGLE POINT ENERGY    -28449.247624770069
-------------------------   --------------------

                                *** OPTIMIZATION RUN DONE ***

                            ***************************************
                            *     ORCA property calculations      *
                            ***************************************

                                    ---------------------
                                    Active property flags
                                    ---------------------
   (+) Dipole Moment


------------------------------------------------------------------------------
                       ORCA ELECTRIC PROPERTIES CALCULATION
------------------------------------------------------------------------------

Dipole Moment Calculation                       ... on
Quadrupole Moment Calculation                   ... off
Polarizability Calculation                      ... off
GBWName                                         ... /home/nikolayandreadi_2125/_scratch/MP2/UF5.gbw
Electron density file                           ... /home/nikolayandreadi_2125/_scratch/MP2/UF5.scfp.tmp
The origin for moment calculation is the CENTER OF MASS  = ( 0.058227,  0.100132  0.000060)

-------------
DIPOLE MOMENT
-------------
                                X             Y             Z
Electronic contribution:      0.94594       1.62724       0.00082
Nuclear contribution   :     -0.62915      -1.08195      -0.00065
                        -----------------------------------------
Total Dipole Moment    :      0.31679       0.54529       0.00017
                        -----------------------------------------
Magnitude (a.u.)       :      0.63063
Magnitude (Debye)      :      1.60293


                         *** MP2 UNRELAXED DENSITY ***

------------------------------------------------------------------------------
                       ORCA ELECTRIC PROPERTIES CALCULATION
------------------------------------------------------------------------------

Dipole Moment Calculation                       ... on
Quadrupole Moment Calculation                   ... off
Polarizability Calculation                      ... off
GBWName                                         ... /home/nikolayandreadi_2125/_scratch/MP2/UF5.gbw
Electron density file                           ... /home/nikolayandreadi_2125/_scratch/MP2/UF5.pmp2ur
The origin for moment calculation is the CENTER OF MASS  = ( 0.058227,  0.100132  0.000060)

-------------
DIPOLE MOMENT
-------------
                                X             Y             Z
Electronic contribution:      0.93928       1.61580       0.00080
Nuclear contribution   :     -0.62915      -1.08195      -0.00065
                        -----------------------------------------
Total Dipole Moment    :      0.31013       0.53386       0.00015
                        -----------------------------------------
Magnitude (a.u.)       :      0.61740
Magnitude (Debye)      :      1.56930


                           *** MP2 RELAXED DENSITY ***

------------------------------------------------------------------------------
                       ORCA ELECTRIC PROPERTIES CALCULATION
------------------------------------------------------------------------------

Dipole Moment Calculation                       ... on
Quadrupole Moment Calculation                   ... off
Polarizability Calculation                      ... off
GBWName                                         ... /home/nikolayandreadi_2125/_scratch/MP2/UF5.gbw
Electron density file                           ... /home/nikolayandreadi_2125/_scratch/MP2/UF5.pmp2re
The origin for moment calculation is the CENTER OF MASS  = ( 0.058227,  0.100132  0.000060)

-------------
DIPOLE MOMENT
-------------
                                X             Y             Z
Electronic contribution:      0.92638       1.59366       0.00075
Nuclear contribution   :     -0.62915      -1.08195      -0.00065
                        -----------------------------------------
Total Dipole Moment    :      0.29722       0.51172       0.00010
                        -----------------------------------------
Magnitude (a.u.)       :      0.59178
Magnitude (Debye)      :      1.50417


Timings for individual modules:

Sum of individual times         ...    16203.044 sec (= 270.051 min)
GTO integral calculation        ...       59.766 sec (=   0.996 min)   0.4 %
Relativistic integrals          ...       16.494 sec (=   0.275 min)   0.1 %
SCF iterations                  ...     3039.198 sec (=  50.653 min)  18.8 %
MP2 module                      ...    13086.593 sec (= 218.110 min)  80.8 %
Geometry relaxation             ...        0.994 sec (=   0.017 min)   0.0 %
                             ****ORCA TERMINATED NORMALLY****
TOTAL RUN TIME: 0 days 4 hours 30 minutes 13 seconds 240 msec
