
                                 *****************
                                 * O   R   C   A *
                                 *****************

           --- An Ab Initio, DFT and Semiempirical electronic structure package ---

                  #######################################################
                  #                        -***-                        #
                  #  Department of molecular theory and spectroscopy    #
                  #              Directorship: Frank Neese              #
                  # Max Planck Institute for Chemical Energy Conversion #
                  #                  D-45470 Muelheim/Ruhr              #
                  #                       Germany                       #
                  #                                                     #
                  #                  All rights reserved                #
                  #                        -***-                        #
                  #######################################################


                         Program Version 4.0.1.2 - RELEASE -


 With contributions from (in alphabetic order):
   Daniel Aravena         : Magnetic Properties
   Michael Atanasov       : Ab Initio Ligand Field Theory
   Ute Becker             : Parallelization
   Martin Brehm           : Molecular dynamics
   Dmytro Bykov           : SCF Hessian
   Vijay G. Chilkuri      : MRCI spin determinant printing
   Dipayan Datta          : RHF DLPNO-CCSD density
   Achintya Kumar Dutta   : EOM-CC, STEOM-CC
   Dmitry Ganyushin       : Spin-Orbit,Spin-Spin,Magnetic field MRCI
   Yang Guo               : DLPNO-NEVPT2, CIM, IAO-localization
   Andreas Hansen         : Spin unrestricted coupled pair/coupled cluster methods
   Lee Huntington         : MR-EOM, pCC
   Robert Izsak           : Overlap fitted RIJCOSX, COSX-SCS-MP3, EOM
   Christian Kollmar      : KDIIS, OOCD, Brueckner-CCSD(T), CCSD density
   Simone Kossmann        : Meta GGA functionals, TD-DFT gradient, OOMP2, MP2 Hessian
   Martin Krupicka        : AUTO-CI
   Dagmar Lenk            : GEPOL surface
   Dimitrios Liakos       : Extrapolation schemes; parallel MDCI
   Dimitrios Manganas     : ROCIS; embedding schemes
   Dimitrios Pantazis     : SARC Basis sets
   Taras Petrenko         : DFT Hessian,TD-DFT gradient, ASA, ECA, R-Raman, ABS, FL, XAS/XES, NRVS
   Peter Pinski           : DLPNO-MP2
   Christoph Reimann      : Effective Core Potentials
   Marius Retegan         : Local ZFS, SOC
   Christoph Riplinger    : Optimizer, TS searches, QM/MM, DLPNO-CCSD(T), (RO)-DLPNO pert. Triples
   Tobias Risthaus        : Range-separated hybrids, TD-DFT gradient, RPA, STAB
   Michael Roemelt        : Restricted open shell CIS
   Masaaki Saitow         : Open-shell DLPNO
   Barbara Sandhoefer     : DKH picture change effects
   Kantharuban Sivalingam : CASSCF convergence, NEVPT2, FIC-MRCI
   Georgi Stoychev        : AutoAux
   Boris Wezisla          : Elementary symmetry handling
   Frank Wennmohs         : Technical directorship


 We gratefully acknowledge several colleagues who have allowed us to
 interface, adapt or use parts of their codes:
   Stefan Grimme, W. Hujo, H. Kruse,             : VdW corrections, initial TS optimization,
                  C. Bannwarth                     DFT functionals, gCP, sTDA/sTD-DF
   Ed Valeev                                     : LibInt (2-el integral package), F12 methods
   Garnet Chan, S. Sharma, J. Yang, R. Olivares  : DMRG
   Ulf Ekstrom                                   : XCFun DFT Library
   Mihaly Kallay                                 : mrcc  (arbitrary order and MRCC methods)
   Andreas Klamt, Michael Diedenhofen            : otool_cosmo (COSMO solvation model)
   Jiri Pittner, Ondrej Demel                    : Mk-CCSD
   Frank Weinhold                                : gennbo (NPA and NBO analysis)
   Christopher J. Cramer and Donald G. Truhlar   : smd solvation model


 Your calculation uses the libint2 library for the computation of 2-el integrals
 For citations please refer to: http://libint.valeyev.net

 This ORCA versions uses:
   CBLAS   interface :  Fast vector & matrix operations
   LAPACKE interface :  Fast linear algebra routines
   SCALAPACK package :  Parallel linear algebra routines


Your calculation utilizes the basis: DKH-def2-TZVP
   Exponents from def2-TZVP [F. Weigend and R. Ahlrichs, Phys. Chem. Chem. Phys. 7, 3297 (2005)],
   recontracted for DKH2 by D. A. Pantazis.

Your calculation utilizes the auxiliary basis: SARC/J 
   decontracted def2/J up to Kr:
   F. Weigend, Phys. Chem. Chem. Phys. 8, 1057 (2006)
   and SARC auxiliary basis sets beyond Kr:
   D. A. Pantazis and F. Neese, J. Chem. Theory Comput. 5, 2229 (2009).
   D. A. Pantazis, X. Y. Chen, C. R. Landis and F. Neese, J. Chem. Theory Comput. 4, 908 (2008).
   D. A. Pantazis and F. Neese, Theor. Chem. Acc. 131, 1292 (2012).
   D. A. Pantazis and F. Neese, J. Chem. Theory Comput. 7, 677 (2011).

================================================================================
                                        WARNINGS
                       Please study these warnings very carefully!
================================================================================

Warning: TCutStore was < 0. Adjusted to Thresh (uncritical)

WARNING: In scalar relativistic gradient/hessian runs we need the one-center approximation
  ===> : %rel OneCenter is turned on

WARNING: The frozen-core approximation for MP2-gradient calculations is turned on by default.

WARNING: Geometry Optimization
  ===> : Switching off AutoStart
         For restart on a previous wavefunction, please use MOREAD

WARNING: Post HF methods need fully converged wavefunctions
  ===> : Setting SCFConvForced true
         You can overwrite this default with %scf ConvForced false 


INFO   : the flag for use of LIBINT has been found!

================================================================================
                                       INPUT FILE
================================================================================
NAME = /home/nikolayandreadi_2125/_scratch/MP2/UF6.inp
|  1> !Opt MP2 DKH-def2-TZVP DKH SARC/J SlowConv
|  2> 
|  3> %pal
|  4> nproc 20
|  5> end
|  6> 
|  7> %maxcore 31500
|  8> 
|  9> %basis
| 10> newgto U "SARC-DKH-TZVP" end
| 11> end
| 12> 
| 13> %scf
| 14> MaxIter 2000
| 15> end
| 16> 
| 17> %method
| 18> Z_MaxIter 5000
| 19> end
| 20> 
| 21> * xyz 0 1
| 22>   U     -0.000008   -0.000119   -0.000338
| 23>   F     -0.000085    0.000060    1.987873
| 24>   F     -0.000089    0.000081   -1.988614
| 25>   F     -0.000081   -1.988299    0.000276
| 26>   F     -0.000080    1.988206    0.000255
| 27>   F     -1.988065    0.000035    0.000272
| 28>   F      1.988408    0.000036    0.000276
| 29> **                         ****END OF INPUT****
================================================================================

                       *****************************
                       * Geometry Optimization Run *
                       *****************************

Geometry optimization settings:
Update method            Update   .... BFGS
Choice of coordinates    CoordSys .... Redundant Internals
Initial Hessian          InHess   .... Almoef's Model

Convergence Tolerances:
Energy Change            TolE     ....  5.0000e-06 Eh
Max. Gradient            TolMAXG  ....  3.0000e-04 Eh/bohr
RMS Gradient             TolRMSG  ....  1.0000e-04 Eh/bohr
Max. Displacement        TolMAXD  ....  4.0000e-03 bohr
RMS Displacement         TolRMSD  ....  2.0000e-03 bohr

------------------------------------------------------------------------------
                        ORCA OPTIMIZATION COORDINATE SETUP
------------------------------------------------------------------------------

The optimization will be done in new redundant internal coordinates
Making redundant internal coordinates   ...  (new redundants) done
Evaluating the initial hessian          ...  (Almloef) done
Evaluating the coordinates              ...  done
Calculating the B-matrix                .... done
Calculating the G-matrix                .... done
Diagonalizing the G-matrix              .... done
The first mode is                       ....    3
The number of degrees of freedom        ....   15

    -----------------------------------------------------------------
                    Redundant Internal Coordinates


    -----------------------------------------------------------------
         Definition                    Initial Value    Approx d2E/dq
    -----------------------------------------------------------------
      1. B(F   1,U   0)                  1.9882         0.194112   
      2. B(F   2,U   0)                  1.9883         0.194066   
      3. B(F   3,U   0)                  1.9882         0.194134   
      4. B(F   4,U   0)                  1.9883         0.194031   
      5. B(F   5,U   0)                  1.9881         0.194222   
      6. B(F   6,U   0)                  1.9884         0.193966   
      7. A(F   2,U   0,F   3)           90.0235         0.323710   
      8. A(F   1,U   0,F   4)           89.9778         0.323694   
      9. A(F   2,U   0,F   4)           90.0113         0.323681   
     10. A(F   1,U   0,F   5)           89.9802         0.323746   
     11. A(F   2,U   0,F   5)           90.0152         0.323734   
     12. A(F   3,U   0,F   5)           90.0023         0.323752   
     13. A(F   4,U   0,F   5)           89.9935         0.323724   
     14. A(F   1,U   0,F   6)           89.9845         0.323676   
     15. A(F   2,U   0,F   6)           90.0200         0.323664   
     16. A(F   3,U   0,F   6)           90.0066         0.323682   
     17. A(F   4,U   0,F   6)           89.9976         0.323654   
     18. A(F   1,U   0,F   3)           89.9875         0.323722   
    -----------------------------------------------------------------

Number of atoms                         .... 7
Number of degrees of freedom            .... 18

         *************************************************************
         *                GEOMETRY OPTIMIZATION CYCLE   1            *
         *************************************************************
---------------------------------
CARTESIAN COORDINATES (ANGSTROEM)
---------------------------------
  U     -0.000008   -0.000119   -0.000338
  F     -0.000085    0.000060    1.987873
  F     -0.000089    0.000081   -1.988614
  F     -0.000081   -1.988299    0.000276
  F     -0.000080    1.988206    0.000255
  F     -1.988065    0.000035    0.000272
  F      1.988408    0.000036    0.000276

----------------------------
CARTESIAN COORDINATES (A.U.)
----------------------------
  NO LB      ZA    FRAG     MASS         X           Y           Z
   0 U    92.0000    0   238.029   -0.000015   -0.000225   -0.000639
   1 F     9.0000    0    18.998   -0.000161    0.000113    3.756536
   2 F     9.0000    0    18.998   -0.000168    0.000153   -3.757936
   3 F     9.0000    0    18.998   -0.000153   -3.757341    0.000522
   4 F     9.0000    0    18.998   -0.000151    3.757165    0.000482
   5 F     9.0000    0    18.998   -3.756898    0.000066    0.000514
   6 F     9.0000    0    18.998    3.757547    0.000068    0.000522

--------------------------------
INTERNAL COORDINATES (ANGSTROEM)
--------------------------------
 U      0   0   0     0.000000000000     0.00000000     0.00000000
 F      1   0   0     1.988211009549     0.00000000     0.00000000
 F      1   2   0     1.988276011709   179.98816719     0.00000000
 F      1   2   3     1.988180096149    89.98746392   202.63271166
 F      1   2   4     1.988325089732    89.97775359   179.99582286
 F      1   2   5     1.988057099548    89.98020044   270.00651059
 F      1   2   6     1.988416100839    89.98452629   179.99109861

---------------------------
INTERNAL COORDINATES (A.U.)
---------------------------
 U      0   0   0     0.000000000000     0.00000000     0.00000000
 F      1   0   0     3.757174304494     0.00000000     0.00000000
 F      1   2   0     3.757297140775   179.98816719     0.00000000
 F      1   2   3     3.757115886636    89.98746392   202.63271166
 F      1   2   4     3.757389884798    89.97775359   179.99582286
 F      1   2   5     3.756883456744    89.98020044   270.00651059
 F      1   2   6     3.757561870866    89.98452629   179.99109861

---------------------
BASIS SET INFORMATION
---------------------
There are 2 groups of distinct atoms

 Group   1 Type U   : 29s20p16d12f contracted to 21s13p10d7f pattern {911111111111111111111/8111111111111/7111111111/6111111}
 Group   2 Type F   : 11s6p2d1f contracted to 6s3p2d1f pattern {611111/411/11/1}

Atom   0U    basis set group =>   1
Atom   1F    basis set group =>   2
Atom   2F    basis set group =>   2
Atom   3F    basis set group =>   2
Atom   4F    basis set group =>   2
Atom   5F    basis set group =>   2
Atom   6F    basis set group =>   2

INFORMATION: There is an auxiliary basis set but the global RI flag is NOT set

-------------------------------
AUXILIARY BASIS SET INFORMATION
-------------------------------
There are 2 groups of distinct atoms

 Group   1 Type U   : 33s10p8d6f4g2h1i contracted to 33s10p8d6f4g2h1i pattern {111111111111111111111111111111111/1111111111/11111111/111111/1111/11/1}
 Group   2 Type F   : 12s5p4d2f1g contracted to 12s5p4d2f1g pattern {111111111111/11111/1111/11/1}

Atom   0U    basis set group =>   1
Atom   1F    basis set group =>   2
Atom   2F    basis set group =>   2
Atom   3F    basis set group =>   2
Atom   4F    basis set group =>   2
Atom   5F    basis set group =>   2
Atom   6F    basis set group =>   2


           ************************************************************
           *        Program running with 20 parallel MPI-processes    *
           *              working on a common directory               *
           ************************************************************
------------------------------------------------------------------------------
                           ORCA GTO INTEGRAL CALCULATION
------------------------------------------------------------------------------

                         BASIS SET STATISTICS AND STARTUP INFO

 # of primitive gaussian shells          ...  197
 # of primitive gaussian functions       ...  529
 # of contracted shells                  ...  123
 # of contracted basis functions         ...  351
 Highest angular momentum                ...    3
 Maximum contraction depth               ...    9
 Integral package used                   ... LIBINT
 Integral threshhold            Thresh   ...  2.500e-11
 Primitive cut-off              TCut     ...  2.500e-12


------------------------------ INTEGRAL EVALUATION ----------------------------


 * One electron integrals 
 Pre-screening matrix                    ... done
 Shell pair data                         ... done (   0.002 sec)

------------------------------------------------------------------------------
                          ORCA RELATIVISTIC HAMILTONIAN
------------------------------------------------------------------------------

Relativistic Method            ... DKH
Order of DKH treatment         ...   2
Treatment of potential         ... V(e,N)
Eps parameter for DKH          ...   0.00000000010000
Nucleus model                  ... Point Nucleus
Speed of light used            ... 137.03598950000000


            ************************************************
            *        DOUGLAS-KROLL-HESS HAMILTONIAN        *
            *   Programmed by FN according to literature   *
            *        procedures. Special thanks to         *
            *       B.A. Hess, M. Reiher and A. Wolf       *
            *     University Erlangen-Nuernberg/Bonn       *
            ************************************************

Uncontracting the basis (first version)        ... done
Number of contracted basis functions           ...  351
Number of uncontracted basis functions         ...  529
Initializing the DKH file                      ... done
One center approximation for DKH is active
Finding unique atoms                      ... 2 atom types
 ATOMIC NUMBER  92
          ... doing integrals          ... Computing the DKH transformation
          ... Transforming V and pVp to p**2 space
          ... First transformation of V and pVp
          ... Second transformation of Veff
          ... Adding kinetic energy
          ... Back transformation of Veff to r-space
          ... Recontracting the H-matrix
          ... Computing the DKH correction to the H-matrix
          ... adding submatrics to 1 actual atoms
 ATOMIC NUMBER   9
          ... doing integrals          ... Computing the DKH transformation
          ... Transforming V and pVp to p**2 space
          ... First transformation of V and pVp
          ... Second transformation of Veff
          ... Adding kinetic energy
          ... Back transformation of Veff to r-space
          ... Recontracting the H-matrix
          ... Computing the DKH correction to the H-matrix
          ... adding submatrics to 6 actual atoms
Storing DKH matrices                           ... done
Getting S**(-1/2)                              ... done
Reading the original H-matrix                  ... done
Adding DKH correction to the H-matrix          ... done
Storing the new modified H-matrix              ... done


           ************************************************************
           *        Program running with 20 parallel MPI-processes    *
           *              working on a common directory               *
           ************************************************************
-------------------------------------------------------------------------------
                                 ORCA SCF
-------------------------------------------------------------------------------

------------
SCF SETTINGS
------------
Hamiltonian:
 Ab initio Hamiltonian  Method          .... Hartree-Fock(GTOs)

Relativistic Settings:
 Scalar relativistic method             .... Douglas-Kroll-Hess
 Order of DKH procedure    Order        ....    2
 Mode of DKH-treatment                  .... V=V(e,N)
 Speed of light used       Velit        ....       137.035989
 Cutoff-constant           Eps          ....            1e-10 


General Settings:
 Integral files         IntName         .... /home/nikolayandreadi_2125/_scratch/MP2/UF6
 Hartree-Fock type      HFTyp           .... RHF
 Total Charge           Charge          ....    0
 Multiplicity           Mult            ....    1
 Number of Electrons    NEL             ....  146
 Basis Dimension        Dim             ....  351
 Nuclear Repulsion      ENuc            ....   1537.5148553770 Eh

Convergence Acceleration:
 DIIS                   CNVDIIS         .... on
   Start iteration      DIISMaxIt       ....     0
   Startup error        DIISStart       ....  0.200000
   # of expansion vecs  DIISMaxEq       ....     5
   Bias factor          DIISBfac        ....   1.050
   Max. coefficient     DIISMaxC        ....  10.000
 Newton-Raphson         CNVNR           .... off
 SOSCF                  CNVSOSCF        .... off
 Level Shifting         CNVShift        .... on
   Level shift para.    LevelShift      ....    0.2500
   Turn off err/grad.   ShiftErr        ....    0.0000
 Zerner damping         CNVZerner       .... off
 Static damping         CNVDamp         .... on
   Fraction old density DampFac         ....    0.8500
   Max. Damping (<1)    DampMax         ....    0.9800
   Min. Damping (>=0)   DampMin         ....    0.0000
   Turn off err/grad.   DampErr         ....    0.0300
 Fernandez-Rico         CNVRico         .... off

SCF Procedure:
 Maximum # iterations   MaxIter         ....  2000
 SCF integral mode      SCFMode         .... Direct
   Integral package                     .... LIBINT
 Reset frequeny         DirectResetFreq ....    20
 Integral Threshold     Thresh          ....  2.500e-11 Eh
 Primitive CutOff       TCut            ....  2.500e-12 Eh

Convergence Tolerance:
 Convergence Check Mode ConvCheckMode   .... Total+1el-Energy
 Convergence forced     ConvForced      .... 1
 Energy Change          TolE            ....  1.000e-08 Eh
 1-El. energy change                    ....  1.000e-05 Eh
 DIIS Error             TolErr          ....  5.000e-07


Diagonalization of the overlap matrix:
Smallest eigenvalue                        ... 4.351e-04
Time for diagonalization                   ...    0.039 sec
Threshold for overlap eigenvalues          ... 1.000e-08
Number of eigenvalues below threshold      ... 0
Time for construction of square roots      ...    0.022 sec
Total time needed                          ...    0.062 sec

-------------------
DFT GRID GENERATION
-------------------

General Integration Accuracy     IntAcc      ...  4.340
Radial Grid Type                 RadialGrid  ... Gauss-Chebyshev
Angular Grid (max. acc.)         AngularGrid ... Lebedev-110
Angular grid pruning method      GridPruning ... 3 (G Style)
Weight generation scheme         WeightScheme... Becke
Basis function cutoff            BFCut       ...    1.0000e-11
Integration weight cutoff        WCut        ...    1.0000e-14
Grids for H and He will be reduced by one unit

# of grid points (after initial pruning)     ...  14384 (   0.0 sec)
# of grid points (after weights+screening)   ...  13880 (   0.0 sec)
nearest neighbour list constructed           ...    0.0 sec
Grid point re-assignment to atoms done       ...    0.0 sec
Grid point division into batches done        ...    0.0 sec
Reduced shell lists constructed in    0.0 sec

Total number of grid points                  ...    13880
Total number of batches                      ...      220
Average number of points per batch           ...       63
Average number of grid points per atom       ...     1983
Average number of shells per batch           ...    71.67 (58.27%)
Average number of basis functions per batch  ...   229.50 (65.38%)
Average number of large shells per batch     ...    65.17 (90.93%)
Average number of large basis fcns per batch ...   213.67 (93.10%)
Maximum spatial batch extension              ...   1.87,  1.87,  1.94 au
Average spatial batch extension              ...   0.09,  0.08,  0.09 au

Time for grid setup =    0.073 sec

------------------------------
INITIAL GUESS: MODEL POTENTIAL
------------------------------
Loading DKH relativistic densities                 ... done
Calculating cut-offs                               ... done
Setting up the integral package                    ... done
Initializing the effective Hamiltonian             ... done
Starting the Coulomb interaction                   ... done (   0.0 sec)
Reading the grid                                   ... done
Mapping shells                                     ... done
Starting the XC term evaluation                    ... done (   0.0 sec)
Transforming the Hamiltonian                       ... done (   0.0 sec)
Diagonalizing the Hamiltonian                      ... done (   0.0 sec)
Back transforming the eigenvectors                 ... done (   0.0 sec)
Now organizing SCF variables                       ... done
                      ------------------
                      INITIAL GUESS DONE (   0.3 sec)
                      ------------------
--------------
SCF ITERATIONS
--------------
ITER       Energy         Delta-E        Max-DP      RMS-DP      [F,P]     Damp
               ***  Starting incremental Fock matrix formation  ***
  0 -28545.8996975985   0.000000000000 0.17597783  0.00119407  8.0213115 0.8500
  1 -28546.0634265700  -0.163728971424 0.12929188  0.00093309  6.8238530 0.8500
                               ***Turning on DIIS***
  2 -28546.1611847812  -0.097758211225 0.08041424  0.00063196  5.8050403 0.8500
  3 -28538.3409191792   7.820265601964 0.03919540  0.00033130  4.9382271 0.8500
  4 -28538.3760399380  -0.035120758752 0.03398401  0.00027501  4.1996342 0.8500
  5 -28541.3865466594  -3.010506721388 0.03270318  0.00028482  3.5705256 0.8500
  6 -28542.8221537198  -1.435607060448 0.03043453  0.00027522  3.0353198 0.8500
  7 -28544.6986657708  -1.876512050996 0.02809972  0.00026759  2.5802117 0.8500
  8 -28544.3349086615   0.363757109313 0.02412185  0.00022144  2.1933671 0.8500
  9 -28544.1707207284   0.164187933045 0.02022250  0.00018043  1.8645008 0.8500
 10 -28544.5257413182  -0.355020589734 0.01721440  0.00015413  1.5849323 0.8500
 11 -28544.9931953455  -0.467454027352 0.01487664  0.00013523  1.3472852 0.8500
 12 -28545.3666684358  -0.373473090305 0.01288012  0.00011840  1.1452757 0.8500
 13 -28545.5350353086  -0.168366872771 0.01104725  0.00010114  0.9735576 0.8500
 14 -28545.6389485697  -0.103913261122 0.00940211  0.00008538  0.8275847 0.8500
 15 -28545.7641423294  -0.125193759675 0.00800343  0.00007248  0.7034969 0.8500
 16 -28545.9013733053  -0.137230975921 0.00683746  0.00006206  0.5980145 0.8500
 17 -28546.0205001352  -0.119126829872 0.00585143  0.00005325  0.5083487 0.8500
 18 -28546.1086765016  -0.088176366356 0.00500131  0.00004550  0.4321277 0.8500
 19 -28546.1762419855  -0.067565483987 0.00426651  0.00003873  0.3673350 0.8500
               *** Restarting incremental Fock matrix formation ***
                                   *** Resetting DIIS ***
 20 -28546.5616746600  -0.385432674510 0.00356998  0.00003178  0.3122571 0.8500
 21 -28546.3856309750   0.176043685089 0.00280359  0.00002516  0.2656259 0.8500
 22 -28546.3220060237   0.063624951243 0.00251910  0.00002151  0.2258992 0.8500
 23 -28546.3819650299  -0.059959006187 0.00226046  0.00001975  0.1920601 0.8500
 24 -28546.4264201568  -0.044455126939 0.00200442  0.00001787  0.1632705 0.8500
 25 -28546.4788623994  -0.052442242588 0.00175667  0.00001605  0.1387895 0.8500
 26 -28546.4866718637  -0.007809464281 0.00151498  0.00001380  0.1179802 0.8500
 27 -28546.4878800009  -0.001208137142 0.00128952  0.00001165  0.1002906 0.8500
 28 -28546.4988722894  -0.010992288586 0.00109830  0.00000993  0.0852530 0.8500
 29 -28546.5137942316  -0.014921942195 0.00093988  0.00000855  0.0724700 0.8500
 30 -28546.5272321256  -0.013437893915 0.00080565  0.00000737  0.0616038 0.8500
 31 -28546.5357505617  -0.008518436189 0.00068875  0.00000631  0.0523670 0.8500
 32 -28546.5415644910  -0.005813929216 0.00058682  0.00000538  0.0445151 0.8500
 33 -28546.5470489451  -0.005484454116 0.00049951  0.00000458  0.0378405 0.8500
 34 -28546.5525389516  -0.005490006504 0.00042558  0.00000392  0.0321667 0.8500
 35 -28546.5574801088  -0.004941157207 0.00241922  0.00002234  0.0273436 0.0000
 36 -28546.5848070508  -0.027326942061 0.00004633  0.00000090  0.0000697 0.0000
 37 -28546.5853054961  -0.000498445264 0.00004429  0.00000080  0.0000426 0.0000
 38 -28546.5852458448   0.000059651313 0.00005639  0.00000074  0.0000261 0.0000
 39 -28546.5841637709   0.001082073861 0.00002462  0.00000034  0.0000132 0.0000
               *** Restarting incremental Fock matrix formation ***
                                   *** Resetting DIIS ***
 40 -28546.5848234355  -0.000659664594 0.00000493  0.00000008  0.0000063 0.0000
 41 -28546.5847823792   0.000041056312 0.00000798  0.00000008  0.0000032 0.0000
 42 -28546.5847834123  -0.000001033088 0.00000322  0.00000005  0.0000030 0.0000
                            ***DIIS convergence achieved***

               *****************************************************
               *                     SUCCESS                       *
               *           SCF CONVERGED AFTER  43 CYCLES          *
               *****************************************************


----------------
TOTAL SCF ENERGY
----------------

Total Energy       :       -28546.58482896 Eh         -776792.06454 eV

Components:
Nuclear Repulsion  :         1537.51485538 Eh           41837.90621 eV
Electronic Energy  :       -30084.09968434 Eh         -818629.97075 eV
One Electron Energy:       -41814.14566973 Eh        -1137820.74936 eV
Two Electron Energy:        11730.04598539 Eh          319190.77861 eV

Virial components:
Potential Energy   :       -80917.65744038 Eh        -2201881.40044 eV
Kinetic Energy     :        52371.07261142 Eh         1425089.33590 eV
Virial Ratio       :            1.54508307


---------------
SCF CONVERGENCE
---------------

  Last Energy change         ...   -4.5548e-05  Tolerance :   1.0000e-08
  Last MAX-Density change    ...    2.8731e-06  Tolerance :   1.0000e-07
  Last RMS-Density change    ...    3.4722e-08  Tolerance :   5.0000e-09
  Last DIIS Error            ...    8.8181e-07  Tolerance :   5.0000e-07

             **** THE GBW FILE WAS UPDATED (/home/nikolayandreadi_2125/_scratch/MP2/UF6.gbw) ****
             **** DENSITY FILE WAS UPDATED (/home/nikolayandreadi_2125/_scratch/MP2/UF6.scfp.tmp) ****
             **** ENERGY FILE WAS UPDATED (/home/nikolayandreadi_2125/_scratch/MP2/UF6.en.tmp) ****
----------------
ORBITAL ENERGIES
----------------

  NO   OCC          E(Eh)            E(eV) 
   0   2.0000   -4260.817884   -115942.7490 
   1   2.0000    -804.785839    -21899.3360 
   2   2.0000    -675.440007    -18379.6570 
   3   2.0000    -675.440007    -18379.6570 
   4   2.0000    -675.440007    -18379.6570 
   5   2.0000    -206.850966     -5628.7009 
   6   2.0000    -170.230938     -4632.2193 
   7   2.0000    -170.230938     -4632.2193 
   8   2.0000    -170.230938     -4632.2193 
   9   2.0000    -135.660057     -3691.4978 
  10   2.0000    -135.660057     -3691.4978 
  11   2.0000    -135.660057     -3691.4978 
  12   2.0000    -135.659585     -3691.4850 
  13   2.0000    -135.659585     -3691.4850 
  14   2.0000     -54.824908     -1491.8616 
  15   2.0000     -42.581490     -1158.7012 
  16   2.0000     -42.581489     -1158.7012 
  17   2.0000     -42.581489     -1158.7012 
  18   2.0000     -29.337817      -798.3226 
  19   2.0000     -29.337816      -798.3226 
  20   2.0000     -29.337816      -798.3226 
  21   2.0000     -29.337232      -798.3067 
  22   2.0000     -29.337232      -798.3067 
  23   2.0000     -26.371462      -717.6040 
  24   2.0000     -26.371427      -717.6030 
  25   2.0000     -26.371414      -717.6027 
  26   2.0000     -26.371369      -717.6014 
  27   2.0000     -26.371348      -717.6009 
  28   2.0000     -26.371327      -717.6003 
  29   2.0000     -15.557250      -423.3343 
  30   2.0000     -15.557249      -423.3343 
  31   2.0000     -15.557249      -423.3343 
  32   2.0000     -15.557196      -423.3328 
  33   2.0000     -15.555856      -423.2964 
  34   2.0000     -15.555856      -423.2964 
  35   2.0000     -15.555856      -423.2964 
  36   2.0000     -13.109254      -356.7209 
  37   2.0000      -9.178345      -249.7555 
  38   2.0000      -9.178345      -249.7555 
  39   2.0000      -9.178345      -249.7555 
  40   2.0000      -4.620732      -125.7365 
  41   2.0000      -4.620731      -125.7365 
  42   2.0000      -4.616274      -125.6152 
  43   2.0000      -4.616274      -125.6152 
  44   2.0000      -4.616273      -125.6152 
  45   2.0000      -2.498832       -67.9967 
  46   2.0000      -1.694570       -46.1116 
  47   2.0000      -1.694565       -46.1115 
  48   2.0000      -1.694558       -46.1113 
  49   2.0000      -1.635391       -44.5013 
  50   2.0000      -1.635386       -44.5011 
  51   2.0000      -1.611019       -43.8381 
  52   2.0000      -1.313438       -35.7405 
  53   2.0000      -1.313437       -35.7404 
  54   2.0000      -1.313437       -35.7404 
  55   2.0000      -0.775290       -21.0967 
  56   2.0000      -0.775285       -21.0966 
  57   2.0000      -0.750513       -20.4225 
  58   2.0000      -0.750510       -20.4224 
  59   2.0000      -0.750508       -20.4224 
  60   2.0000      -0.723711       -19.6932 
  61   2.0000      -0.723711       -19.6932 
  62   2.0000      -0.723710       -19.6932 
  63   2.0000      -0.707675       -19.2568 
  64   2.0000      -0.707672       -19.2567 
  65   2.0000      -0.707671       -19.2567 
  66   2.0000      -0.705028       -19.1848 
  67   2.0000      -0.671955       -18.2848 
  68   2.0000      -0.671953       -18.2848 
  69   2.0000      -0.671952       -18.2847 
  70   2.0000      -0.640485       -17.4285 
  71   2.0000      -0.640484       -17.4285 
  72   2.0000      -0.640482       -17.4284 
  73   0.0000      -0.061668        -1.6781 
  74   0.0000      -0.040536        -1.1030 
  75   0.0000      -0.040536        -1.1030 
  76   0.0000      -0.040535        -1.1030 
  77   0.0000      -0.011542        -0.3141 
  78   0.0000      -0.011541        -0.3140 
  79   0.0000      -0.011541        -0.3140 
  80   0.0000       0.025223         0.6864 
  81   0.0000       0.117260         3.1908 
  82   0.0000       0.127107         3.4588 
  83   0.0000       0.127107         3.4588 
  84   0.0000       0.127109         3.4588 
  85   0.0000       0.142194         3.8693 
  86   0.0000       0.142194         3.8693 
  87   0.0000       0.142195         3.8693 
  88   0.0000       0.148050         4.0286 
  89   0.0000       0.148050         4.0286 
  90   0.0000       0.148051         4.0287 
  91   0.0000       0.155678         4.2362 
  92   0.0000       0.155679         4.2362 
  93   0.0000       0.313693         8.5360 
  94   0.0000       0.389181        10.5902 
  95   0.0000       0.411960        11.2100 
  96   0.0000       0.411965        11.2101 
  97   0.0000       0.477314        12.9884 
  98   0.0000       0.477315        12.9884 
  99   0.0000       0.477318        12.9885 
 100   0.0000       0.522386        14.2148 
 101   0.0000       0.522387        14.2149 
 102   0.0000       0.522390        14.2149 
 103   0.0000       0.533954        14.5296 
 104   0.0000       0.533956        14.5297 
 105   0.0000       0.533958        14.5297 
 106   0.0000       0.573117        15.5953 
 107   0.0000       0.573119        15.5954 
 108   0.0000       0.601647        16.3716 
 109   0.0000       0.601649        16.3717 
 110   0.0000       0.601649        16.3717 
 111   0.0000       0.736318        20.0362 
 112   0.0000       0.786823        21.4105 
 113   0.0000       0.847645        23.0656 
 114   0.0000       0.847648        23.0657 
 115   0.0000       0.882762        24.0212 
 116   0.0000       0.882763        24.0212 
 117   0.0000       0.882763        24.0212 
 118   0.0000       0.924355        25.1530 
 119   0.0000       0.924357        25.1530 
 120   0.0000       0.924360        25.1531 
 121   0.0000       0.931552        25.3488 
 122   0.0000       0.931554        25.3489 
 123   0.0000       0.931555        25.3489 
 124   0.0000       0.937517        25.5111 
 125   0.0000       0.937517        25.5111 
 126   0.0000       0.937519        25.5112 
 127   0.0000       0.990970        26.9657 
 128   0.0000       0.990970        26.9657 
 129   0.0000       0.990971        26.9657 
 130   0.0000       1.202614        32.7248 
 131   0.0000       1.230123        33.4734 
 132   0.0000       1.230124        33.4734 
 133   0.0000       1.230124        33.4734 
 134   0.0000       1.301193        35.4073 
 135   0.0000       1.301196        35.4073 
 136   0.0000       1.307077        35.5674 
 137   0.0000       1.307080        35.5675 
 138   0.0000       1.307082        35.5675 
 139   0.0000       1.554791        42.3080 
 140   0.0000       1.645416        44.7740 
 141   0.0000       1.645417        44.7741 
 142   0.0000       1.645419        44.7741 
 143   0.0000       1.715527        46.6819 
 144   0.0000       1.715537        46.6821 
 145   0.0000       1.715544        46.6823 
 146   0.0000       1.925732        52.4018 
 147   0.0000       1.925732        52.4018 
 148   0.0000       1.925733        52.4019 
 149   0.0000       2.113209        57.5033 
 150   0.0000       2.139058        58.2067 
 151   0.0000       2.139059        58.2068 
 152   0.0000       2.139061        58.2068 
 153   0.0000       2.184147        59.4337 
 154   0.0000       2.184151        59.4338 
 155   0.0000       2.191284        59.6279 
 156   0.0000       2.235363        60.8273 
 157   0.0000       2.235366        60.8274 
 158   0.0000       2.235370        60.8275 
 159   0.0000       2.275826        61.9284 
 160   0.0000       2.275827        61.9284 
 161   0.0000       2.287325        62.2413 
 162   0.0000       2.287328        62.2414 
 163   0.0000       2.287334        62.2415 
 164   0.0000       2.397412        65.2369 
 165   0.0000       2.499797        68.0229 
 166   0.0000       2.499802        68.0231 
 167   0.0000       2.595077        70.6156 
 168   0.0000       2.595080        70.6157 
 169   0.0000       2.595087        70.6159 
 170   0.0000       2.725055        74.1525 
 171   0.0000       2.725059        74.1526 
 172   0.0000       2.725064        74.1528 
 173   0.0000       2.728131        74.2362 
 174   0.0000       2.728136        74.2364 
 175   0.0000       2.728144        74.2366 
 176   0.0000       2.855329        77.6975 
 177   0.0000       2.876236        78.2664 
 178   0.0000       2.876247        78.2667 
 179   0.0000       3.033671        82.5504 
 180   0.0000       3.033673        82.5504 
 181   0.0000       3.033677        82.5505 
 182   0.0000       3.661031        99.6217 
 183   0.0000       3.661031        99.6217 
 184   0.0000       3.661031        99.6217 
 185   0.0000       3.691510       100.4511 
 186   0.0000       3.691513       100.4512 
 187   0.0000       3.691514       100.4512 
 188   0.0000       3.700169       100.6867 
 189   0.0000       3.700170       100.6867 
 190   0.0000       3.700172       100.6868 
 191   0.0000       3.706063       100.8471 
 192   0.0000       3.757976       102.2597 
 193   0.0000       3.768205       102.5381 
 194   0.0000       3.768206       102.5381 
 195   0.0000       3.768208       102.5381 
 196   0.0000       3.894847       105.9842 
 197   0.0000       3.894852       105.9843 
 198   0.0000       4.036702       109.8442 
 199   0.0000       4.036708       109.8444 
 200   0.0000       4.036711       109.8445 
 201   0.0000       4.153144       113.0128 
 202   0.0000       4.153160       113.0132 
 203   0.0000       4.153172       113.0136 
 204   0.0000       4.413232       120.0902 
 205   0.0000       4.413236       120.0903 
 206   0.0000       4.413240       120.0904 
 207   0.0000       4.445744       120.9748 
 208   0.0000       4.500637       122.4685 
 209   0.0000       4.500638       122.4686 
 210   0.0000       4.671565       127.1197 
 211   0.0000       4.671573       127.1200 
 212   0.0000       4.671579       127.1201 
 213   0.0000       7.249150       197.2594 
 214   0.0000       7.249160       197.2597 
 215   0.0000       7.286645       198.2797 
 216   0.0000       7.286647       198.2798 
 217   0.0000       7.286649       198.2798 
 218   0.0000       7.305695       198.7981 
 219   0.0000       7.305702       198.7982 
 220   0.0000       7.305815       198.8013 
 221   0.0000       7.308228       198.8670 
 222   0.0000       7.308230       198.8670 
 223   0.0000       7.308235       198.8672 
 224   0.0000       7.308618       198.8776 
 225   0.0000       7.308620       198.8776 
 226   0.0000       7.308623       198.8777 
 227   0.0000       7.329730       199.4521 
 228   0.0000       7.329732       199.4521 
 229   0.0000       7.329734       199.4522 
 230   0.0000       7.330306       199.4678 
 231   0.0000       7.330308       199.4678 
 232   0.0000       7.330310       199.4679 
 233   0.0000       7.332108       199.5168 
 234   0.0000       7.332110       199.5169 
 235   0.0000       7.332110       199.5169 
 236   0.0000       7.340434       199.7434 
 237   0.0000       7.340437       199.7435 
 238   0.0000       7.344537       199.8550 
 239   0.0000       7.344539       199.8551 
 240   0.0000       7.344540       199.8551 
 241   0.0000       7.348194       199.9545 
 242   0.0000       7.368223       200.4995 
 243   0.0000       7.368225       200.4996 
 244   0.0000       7.368227       200.4996 
 245   0.0000       7.371784       200.5965 
 246   0.0000       7.372345       200.6117 
 247   0.0000       7.372348       200.6118 
 248   0.0000       7.372352       200.6119 
 249   0.0000       7.407293       201.5627 
 250   0.0000       7.407296       201.5628 
 251   0.0000       7.407297       201.5628 
 252   0.0000       7.431101       202.2105 
 253   0.0000       7.431104       202.2106 
 254   0.0000       7.431106       202.2107 
 255   0.0000       8.197179       223.0566 
 256   0.0000       8.197183       223.0567 
 257   0.0000       8.197184       223.0567 
 258   0.0000       8.793167       239.2742 
 259   0.0000       8.793174       239.2744 
 260   0.0000       8.793616       239.2864 
 261   0.0000       8.793618       239.2865 
 262   0.0000       8.793620       239.2866 
 263   0.0000       8.794130       239.3005 
 264   0.0000       8.794132       239.3005 
 265   0.0000       8.794133       239.3005 
 266   0.0000       8.796626       239.3684 
 267   0.0000       8.841586       240.5918 
 268   0.0000       8.841587       240.5918 
 269   0.0000       8.841590       240.5919 
 270   0.0000       8.848348       240.7758 
 271   0.0000       8.848349       240.7758 
 272   0.0000       8.848354       240.7760 
 273   0.0000       8.852185       240.8802 
 274   0.0000       8.852188       240.8803 
 275   0.0000       8.924732       242.8543 
 276   0.0000       9.053845       246.3676 
 277   0.0000       9.053853       246.3679 
 278   0.0000       9.074641       246.9335 
 279   0.0000       9.089246       247.3310 
 280   0.0000       9.089251       247.3311 
 281   0.0000       9.089255       247.3312 
 282   0.0000       9.130922       248.4650 
 283   0.0000       9.130927       248.4652 
 284   0.0000       9.130928       248.4652 
 285   0.0000       9.162289       249.3185 
 286   0.0000       9.162295       249.3187 
 287   0.0000       9.162300       249.3188 
 288   0.0000       9.485239       258.1065 
 289   0.0000       9.485266       258.1072 
 290   0.0000       9.485273       258.1074 
 291   0.0000       9.486465       258.1398 
 292   0.0000       9.486506       258.1410 
 293   0.0000       9.778553       266.0880 
 294   0.0000      13.427211       365.3730 
 295   0.0000      13.488469       367.0399 
 296   0.0000      13.488471       367.0400 
 297   0.0000      13.488472       367.0400 
 298   0.0000      13.696044       372.6883 
 299   0.0000      13.696049       372.6884 
 300   0.0000      13.696050       372.6885 
 301   0.0000      19.817881       539.2720 
 302   0.0000      19.817883       539.2720 
 303   0.0000      19.837615       539.8089 
 304   0.0000      19.955789       543.0246 
 305   0.0000      19.955793       543.0247 
 306   0.0000      19.955794       543.0248 
 307   0.0000      44.064327      1199.0513 
 308   0.0000      46.545857      1266.5772 
 309   0.0000      46.545858      1266.5772 
 310   0.0000      46.545858      1266.5772 
 311   0.0000      46.677514      1270.1597 
 312   0.0000      46.677515      1270.1598 
 313   0.0000      47.313952      1287.4781 
 314   0.0000      47.313953      1287.4781 
 315   0.0000      47.313954      1287.4781 
 316   0.0000      52.982656      1441.7314 
 317   0.0000      53.015436      1442.6234 
 318   0.0000      53.015437      1442.6234 
 319   0.0000      53.015438      1442.6234 
 320   0.0000      53.119093      1445.4440 
 321   0.0000      53.119094      1445.4440 
 322   0.0000      53.119096      1445.4441 
 323   0.0000     102.966552      2801.8623 
 324   0.0000     102.966554      2801.8624 
 325   0.0000     102.998508      2802.7319 
 326   0.0000     103.102054      2805.5495 
 327   0.0000     103.102059      2805.5496 
 328   0.0000     103.102059      2805.5497 
 329   0.0000     204.919731      5576.1494 
 330   0.0000     235.767405      6415.5573 
 331   0.0000     235.767405      6415.5573 
 332   0.0000     235.767405      6415.5573 
 333   0.0000     235.841728      6417.5797 
 334   0.0000     235.841728      6417.5797 
 335   0.0000     264.218715      7189.7568 
 336   0.0000     264.218717      7189.7568 
 337   0.0000     264.218717      7189.7568 
 338   0.0000     792.339277     21560.6478 
 339   0.0000    1085.526323     29538.6730 
 340   0.0000    1085.526324     29538.6730 
 341   0.0000    1085.526325     29538.6730 
 342   0.0000    2430.570506     66139.1859 
 343   0.0000    3783.253154    102947.5521 
 344   0.0000    3783.253155    102947.5521 
 345   0.0000    3783.253155    102947.5521 
 346   0.0000    6095.543322    165868.1664 
 347   0.0000   13027.160188    354487.0505 
 348   0.0000   24922.077144    678164.1963 
 349   0.0000   43992.300060   1197091.3436 
 350   0.0000   84401.415614   2296679.2798 

                    ********************************
                    * MULLIKEN POPULATION ANALYSIS *
                    ********************************

-----------------------
MULLIKEN ATOMIC CHARGES
-----------------------
   0 U :    3.133455
   1 F :   -0.522201
   2 F :   -0.522284
   3 F :   -0.522229
   4 F :   -0.522266
   5 F :   -0.522167
   6 F :   -0.522309
Sum of atomic charges:   -0.0000000

--------------------------------
MULLIKEN REDUCED ORBITAL CHARGES
--------------------------------
  0 U s       :    12.066097  s :    12.066097
      pz      :    10.014537  p :    30.043613
      px      :    10.014535
      py      :    10.014540
      dz2     :     6.297072  d :    31.244303
      dxz     :     6.216720
      dyz     :     6.216719
      dx2y2   :     6.297072
      dxy     :     6.216720
      f0      :     2.367001  f :    15.512532
      f+1     :     2.223363
      f-1     :     2.223358
      f+2     :     2.137177
      f-2     :     2.000000
      f+3     :     2.280820
      f-3     :     2.280813
  1 F s       :     4.010035  s :     4.010035
      pz      :     1.730910  p :     5.501273
      px      :     1.885182
      py      :     1.885181
      dz2     :     0.004812  d :     0.010614
      dxz     :     0.002891
      dyz     :     0.002891
      dx2y2   :     0.000014
      dxy     :     0.000005
      f0      :     0.000152  f :     0.000279
      f+1     :     0.000063
      f-1     :     0.000063
      f+2     :     0.000000
      f-2     :     0.000000
      f+3     :     0.000000
      f-3     :     0.000000
  2 F s       :     4.010047  s :     4.010047
      pz      :     1.730962  p :     5.501347
      px      :     1.885193
      py      :     1.885193
      dz2     :     0.004810  d :     0.010611
      dxz     :     0.002891
      dyz     :     0.002891
      dx2y2   :     0.000014
      dxy     :     0.000005
      f0      :     0.000152  f :     0.000279
      f+1     :     0.000063
      f-1     :     0.000063
      f+2     :     0.000000
      f-2     :     0.000000
      f+3     :     0.000000
      f-3     :     0.000000
  3 F s       :     4.010045  s :     4.010045
      pz      :     1.885178  p :     5.501291
      px      :     1.885179
      py      :     1.730934
      dz2     :     0.001214  d :     0.010614
      dxz     :     0.000005
      dyz     :     0.002891
      dx2y2   :     0.003613
      dxy     :     0.002891
      f0      :     0.000024  f :     0.000279
      f+1     :     0.000004
      f-1     :     0.000057
      f+2     :     0.000039
      f-2     :     0.000000
      f+3     :     0.000059
      f-3     :     0.000095
  4 F s       :     4.010037  s :     4.010037
      pz      :     1.885198  p :     5.501341
      px      :     1.885198
      py      :     1.730945
      dz2     :     0.001213  d :     0.010610
      dxz     :     0.000005
      dyz     :     0.002890
      dx2y2   :     0.003611
      dxy     :     0.002890
      f0      :     0.000024  f :     0.000279
      f+1     :     0.000004
      f-1     :     0.000057
      f+2     :     0.000039
      f-2     :     0.000000
      f+3     :     0.000059
      f-3     :     0.000095
  5 F s       :     4.010046  s :     4.010046
      pz      :     1.885161  p :     5.501225
      px      :     1.730903
      py      :     1.885161
      dz2     :     0.001214  d :     0.010618
      dxz     :     0.002892
      dyz     :     0.000005
      dx2y2   :     0.003614
      dxy     :     0.002892
      f0      :     0.000024  f :     0.000279
      f+1     :     0.000057
      f-1     :     0.000004
      f+2     :     0.000039
      f-2     :     0.000000
      f+3     :     0.000095
      f-3     :     0.000059
  6 F s       :     4.010037  s :     4.010037
      pz      :     1.885211  p :     5.501386
      px      :     1.730964
      py      :     1.885211
      dz2     :     0.001213  d :     0.010607
      dxz     :     0.002889
      dyz     :     0.000005
      dx2y2   :     0.003610
      dxy     :     0.002889
      f0      :     0.000024  f :     0.000278
      f+1     :     0.000057
      f-1     :     0.000004
      f+2     :     0.000039
      f-2     :     0.000000
      f+3     :     0.000095
      f-3     :     0.000059


                     *******************************
                     * LOEWDIN POPULATION ANALYSIS *
                     *******************************

----------------------
LOEWDIN ATOMIC CHARGES
----------------------
   0 U :    0.785599
   1 F :   -0.130892
   2 F :   -0.130974
   3 F :   -0.130896
   4 F :   -0.130984
   5 F :   -0.130802
   6 F :   -0.131052

-------------------------------
LOEWDIN REDUCED ORBITAL CHARGES
-------------------------------
  0 U s       :    12.111991  s :    12.111991
      pz      :    10.061051  p :    30.183154
      px      :    10.061048
      py      :    10.061055
      dz2     :     6.609087  d :    32.160474
      dxz     :     6.314101
      dyz     :     6.314099
      dx2y2   :     6.609087
      dxy     :     6.314100
      f0      :     2.663599  f :    16.758783
      f+1     :     2.408850
      f-1     :     2.408844
      f+2     :     2.255996
      f-2     :     2.000000
      f+3     :     2.510751
      f-3     :     2.510743
  1 F s       :     3.724048  s :     3.724048
      pz      :     1.764877  p :     5.385749
      px      :     1.810436
      py      :     1.810435
      dz2     :     0.014932  d :     0.020427
      dxz     :     0.002714
      dyz     :     0.002714
      dx2y2   :     0.000064
      dxy     :     0.000004
      f0      :     0.000468  f :     0.000668
      f+1     :     0.000097
      f-1     :     0.000097
      f+2     :     0.000003
      f-2     :     0.000001
      f+3     :     0.000001
      f-3     :     0.000001
  2 F s       :     3.724060  s :     3.724060
      pz      :     1.764933  p :     5.385824
      px      :     1.810445
      py      :     1.810445
      dz2     :     0.014927  d :     0.020422
      dxz     :     0.002714
      dyz     :     0.002714
      dx2y2   :     0.000063
      dxy     :     0.000004
      f0      :     0.000467  f :     0.000668
      f+1     :     0.000097
      f-1     :     0.000097
      f+2     :     0.000003
      f-2     :     0.000001
      f+3     :     0.000001
      f-3     :     0.000001
  3 F s       :     3.724037  s :     3.724037
      pz      :     1.810425  p :     5.385760
      px      :     1.810426
      py      :     1.764910
      dz2     :     0.003781  d :     0.020430
      dxz     :     0.000004
      dyz     :     0.002715
      dx2y2   :     0.011216
      dxy     :     0.002715
      f0      :     0.000038  f :     0.000668
      f+1     :     0.000006
      f-1     :     0.000178
      f+2     :     0.000060
      f-2     :     0.000001
      f+3     :     0.000092
      f-3     :     0.000294
  4 F s       :     3.724075  s :     3.724075
      pz      :     1.810460  p :     5.385825
      px      :     1.810460
      py      :     1.764905
      dz2     :     0.003779  d :     0.020417
      dxz     :     0.000004
      dyz     :     0.002713
      dx2y2   :     0.011209
      dxy     :     0.002713
      f0      :     0.000038  f :     0.000668
      f+1     :     0.000006
      f-1     :     0.000177
      f+2     :     0.000060
      f-2     :     0.000001
      f+3     :     0.000092
      f-3     :     0.000293
  5 F s       :     3.724007  s :     3.724007
      pz      :     1.810398  p :     5.385685
      px      :     1.764888
      py      :     1.810398
      dz2     :     0.003783  d :     0.020441
      dxz     :     0.002716
      dyz     :     0.000004
      dx2y2   :     0.011222
      dxy     :     0.002716
      f0      :     0.000038  f :     0.000669
      f+1     :     0.000178
      f-1     :     0.000006
      f+2     :     0.000060
      f-2     :     0.000001
      f+3     :     0.000294
      f-3     :     0.000092
  6 F s       :     3.724097  s :     3.724097
      pz      :     1.810480  p :     5.385878
      px      :     1.764919
      py      :     1.810479
      dz2     :     0.003777  d :     0.020409
      dxz     :     0.002712
      dyz     :     0.000004
      dx2y2   :     0.011204
      dxy     :     0.002712
      f0      :     0.000038  f :     0.000667
      f+1     :     0.000177
      f-1     :     0.000006
      f+2     :     0.000060
      f-2     :     0.000001
      f+3     :     0.000293
      f-3     :     0.000092


                      *****************************
                      * MAYER POPULATION ANALYSIS *
                      *****************************

  NA   - Mulliken gross atomic population
  ZA   - Total nuclear charge
  QA   - Mulliken gross atomic charge
  VA   - Mayer's total valence
  BVA  - Mayer's bonded valence
  FA   - Mayer's free valence

  ATOM       NA         ZA         QA         VA         BVA        FA
  0 U     88.8665    92.0000     3.1335     4.3418     4.3418    -0.0000
  1 F      9.5222     9.0000    -0.5222     0.7569     0.7569     0.0000
  2 F      9.5223     9.0000    -0.5223     0.7568     0.7568     0.0000
  3 F      9.5222     9.0000    -0.5222     0.7569     0.7569    -0.0000
  4 F      9.5223     9.0000    -0.5223     0.7569     0.7569    -0.0000
  5 F      9.5222     9.0000    -0.5222     0.7569     0.7569    -0.0000
  6 F      9.5223     9.0000    -0.5223     0.7569     0.7569     0.0000

  Mayer bond orders larger than 0.1
B(  0-U ,  1-F ) :   0.7237 B(  0-U ,  2-F ) :   0.7236 B(  0-U ,  3-F ) :   0.7236 
B(  0-U ,  4-F ) :   0.7236 B(  0-U ,  5-F ) :   0.7237 B(  0-U ,  6-F ) :   0.7236 


-------
TIMINGS
-------

Total SCF time: 0 days 0 hours 1 min 59 sec 

Total time                  ....     119.425 sec
Sum of individual times     ....     105.187 sec  ( 88.1%)

Fock matrix formation       ....      99.517 sec  ( 83.3%)
Diagonalization             ....       3.296 sec  (  2.8%)
Density matrix formation    ....       0.106 sec  (  0.1%)
Population analysis         ....       0.080 sec  (  0.1%)
Initial guess               ....       0.198 sec  (  0.2%)
Orbital Transformation      ....       0.000 sec  (  0.0%)
Orbital Orthonormalization  ....       0.000 sec  (  0.0%)
DIIS solution               ....       1.916 sec  (  1.6%)


           ************************************************************
           *        Program running with 20 parallel MPI-processes    *
           *              working on a common directory               *
           ************************************************************

------------------------------------------------------------------------------
                                ORCA  MP2 
------------------------------------------------------------------------------

Freezing NCore=80 chemical core electrons
MP2 will be done in the AO integral direct mode
The Q1-step will be done using symmetric double matrices
Dimension of the basis                    ...  351
Memory devoted for MP2                    ... 31500 MB   
Memory needed for all in one shot         ...  332 MB
Number of MOs that can be treated together...  189      
MP2 density construction                  ... relaxed
The MP2 gradient is requested => amplitudes will be stored on disk
Total number of MOs              ...   33
Number of MOs treated per batch  ...    2 
Number of batches necessary      ...    1 
OPERATORS   0/  0 PASS   0
-----------------------------------------------
 MP2 CORRELATION ENERGY   :     -2.533070730 Eh
-----------------------------------------------


---------------------
MP2 DENSITY FORMATION
---------------------

Completing the external part of the density      ... done
Storing the unrelaxed density                    ... done

Calculating G(D)                                 ... done
Completing the Lagrangian                        ... done
Solving the Z-vector equations                   ... 

------------------------------------------------------------------------------
                           ORCA CP-SCF CALCULATION
------------------------------------------------------------------------------

Input orbitals are from        ... /home/nikolayandreadi_2125/_scratch/MP2/UF6.gbw
Input Perturbation             ... /home/nikolayandreadi_2125/_scratch/MP2/UF6.pin.tmp
Wavefunction output            ... /home/nikolayandreadi_2125/_scratch/MP2/UF6.pout.tmp
Perturbation mode              ... Real perturbation
Solver                         ... DIIS
   MaxDIIS                     ... 20
   Levelshift                  ...    3.000e-01 Eh
Max. number of iterations      ... 5000
Convergence tolerance          ... 1.000e-08
Integral handling              ... Direct
Number of perturbations        ... 1
Number of operators            ... 1
Orbital ranges used for CP-SCF:
 Operator 0:  Orbitals   0... 72  to  73...350
Variables per vector in CP-SCF ... 20294
Number of vectors sought       ... 1

Solving the CP-SCF equations by a DIIS algorithm

-----------------
CP-SCF ITERATIONS
-----------------
  Iteration   0: MaxR=  1.294175410
  Iteration   1: MaxR=  1.107284556
  Iteration   2: MaxR=  0.136014103
  Iteration   3: MaxR=  0.068310190
  Iteration   4: MaxR=  0.024334068
  Iteration   5: MaxR=  0.013278992
  Iteration   6: MaxR=  0.005751579
  Iteration   7: MaxR=  0.001464595
  Iteration   8: MaxR=  0.000341107
  Iteration   9: MaxR=  0.000089574
  Iteration  10: MaxR=  0.000019193
  Iteration  11: MaxR=  0.000006111
  Iteration  12: MaxR=  0.000001404
  Iteration  13: MaxR=  0.000000400
  Iteration  14: MaxR=  0.000000133
  Iteration  15: MaxR=  0.000000025
  Iteration  16: MaxR=  0.000000005
                              *** THE CP-SCF HAS CONVERGED *** 
                                                 ... done
Finalizing the relaxed density                   ... done
Transforming P to the AO basis                   ... done
Storing the relaxed density                      ... done

------------------------------------
ENERGY WEIGHTED DENSITY FINALIZATION
------------------------------------

Gathering the parts of the W-matrix              ...                                                      done
Forming the Z-density                            ... done
Transforming Z to the AO basis                   ... done
Calculating G(Z)                                 ... done
Finalizing the W-matrix                          ...                                                      done
Transforming W to the AO basis and storing       ... done

                *********************************************
                * UNRELAXED MP2 DENSITY POPULATION ANALYSIS *
                *********************************************

------------------------------------------------------------------------------
                           ORCA POPULATION ANALYSIS
------------------------------------------------------------------------------
Input electron density              ... /home/nikolayandreadi_2125/_scratch/MP2/UF6.pmp2ur
BaseName (.gbw .S,...)              ... /home/nikolayandreadi_2125/_scratch/MP2/UF6

                    ********************************
                    * MULLIKEN POPULATION ANALYSIS *
                    ********************************

-----------------------
MULLIKEN ATOMIC CHARGES
-----------------------
   0 U :    2.935962
   1 F :   -0.489279
   2 F :   -0.489374
   3 F :   -0.489315
   4 F :   -0.489349
   5 F :   -0.489251
   6 F :   -0.489394
Sum of atomic charges:   -0.0000000

--------------------------------
MULLIKEN REDUCED ORBITAL CHARGES
--------------------------------
  0 U s       :    12.063517  s :    12.063517
      pz      :     9.989761  p :    29.969285
      px      :     9.989759
      py      :     9.989764
      dz2     :     6.305889  d :    31.313975
      dxz     :     6.234066
      dyz     :     6.234065
      dx2y2   :     6.305888
      dxy     :     6.234066
      f0      :     2.401583  f :    15.717261
      f+1     :     2.253743
      f-1     :     2.253738
      f+2     :     2.165035
      f-2     :     2.017409
      f+3     :     2.312880
      f-3     :     2.312873
  1 F s       :     4.005586  s :     4.005586
      pz      :     1.709155  p :     5.445346
      px      :     1.868096
      py      :     1.868095
      dz2     :     0.010041  d :     0.035918
      dxz     :     0.008098
      dyz     :     0.008098
      dx2y2   :     0.004827
      dxy     :     0.004855
      f0      :     0.000478  f :     0.002429
      f+1     :     0.000381
      f-1     :     0.000381
      f+2     :     0.000304
      f-2     :     0.000304
      f+3     :     0.000290
      f-3     :     0.000290
  2 F s       :     4.005599  s :     4.005599
      pz      :     1.709211  p :     5.445432
      px      :     1.868110
      py      :     1.868110
      dz2     :     0.010039  d :     0.035915
      dxz     :     0.008097
      dyz     :     0.008097
      dx2y2   :     0.004827
      dxy     :     0.004855
      f0      :     0.000478  f :     0.002428
      f+1     :     0.000381
      f-1     :     0.000381
      f+2     :     0.000304
      f-2     :     0.000304
      f+3     :     0.000290
      f-3     :     0.000290
  3 F s       :     4.005596  s :     4.005596
      pz      :     1.868094  p :     5.445372
      px      :     1.868095
      py      :     1.709182
      dz2     :     0.006130  d :     0.035919
      dxz     :     0.004855
      dyz     :     0.008098
      dx2y2   :     0.008737
      dxy     :     0.008098
      f0      :     0.000325  f :     0.002429
      f+1     :     0.000296
      f-1     :     0.000369
      f+2     :     0.000347
      f-2     :     0.000304
      f+3     :     0.000376
      f-3     :     0.000413
  4 F s       :     4.005588  s :     4.005588
      pz      :     1.868114  p :     5.445419
      px      :     1.868114
      py      :     1.709191
      dz2     :     0.006130  d :     0.035914
      dxz     :     0.004855
      dyz     :     0.008097
      dx2y2   :     0.008736
      dxy     :     0.008097
      f0      :     0.000325  f :     0.002428
      f+1     :     0.000296
      f-1     :     0.000369
      f+2     :     0.000346
      f-2     :     0.000304
      f+3     :     0.000376
      f-3     :     0.000413
  5 F s       :     4.005597  s :     4.005597
      pz      :     1.868076  p :     5.445303
      px      :     1.709151
      py      :     1.868076
      dz2     :     0.006131  d :     0.035923
      dxz     :     0.008099
      dyz     :     0.004855
      dx2y2   :     0.008739
      dxy     :     0.008099
      f0      :     0.000325  f :     0.002429
      f+1     :     0.000369
      f-1     :     0.000296
      f+2     :     0.000347
      f-2     :     0.000304
      f+3     :     0.000413
      f-3     :     0.000376
  6 F s       :     4.005589  s :     4.005589
      pz      :     1.868128  p :     5.445466
      px      :     1.709211
      py      :     1.868128
      dz2     :     0.006130  d :     0.035911
      dxz     :     0.008096
      dyz     :     0.004855
      dx2y2   :     0.008735
      dxy     :     0.008096
      f0      :     0.000325  f :     0.002428
      f+1     :     0.000369
      f-1     :     0.000296
      f+2     :     0.000346
      f-2     :     0.000304
      f+3     :     0.000413
      f-3     :     0.000376


                     *******************************
                     * LOEWDIN POPULATION ANALYSIS *
                     *******************************

----------------------
LOEWDIN ATOMIC CHARGES
----------------------
   0 U :    0.599087
   1 F :   -0.099803
   2 F :   -0.099892
   3 F :   -0.099813
   4 F :   -0.099897
   5 F :   -0.099718
   6 F :   -0.099965

-------------------------------
LOEWDIN REDUCED ORBITAL CHARGES
-------------------------------
  0 U s       :    12.108907  s :    12.108907
      pz      :    10.037622  p :    30.112867
      px      :    10.037619
      py      :    10.037626
      dz2     :     6.614733  d :    32.223393
      dxz     :     6.331310
      dyz     :     6.331308
      dx2y2   :     6.614732
      dxy     :     6.331309
      f0      :     2.696185  f :    16.955746
      f+1     :     2.438095
      f-1     :     2.438089
      f+2     :     2.283237
      f-2     :     2.017483
      f+3     :     2.541333
      f-3     :     2.541325
  1 F s       :     3.720203  s :     3.720203
      pz      :     1.743673  p :     5.330203
      px      :     1.793265
      py      :     1.793264
      dz2     :     0.020645  d :     0.046539
      dxz     :     0.008034
      dyz     :     0.008034
      dx2y2   :     0.004968
      dxy     :     0.004859
      f0      :     0.000812  f :     0.002858
      f+1     :     0.000424
      f-1     :     0.000424
      f+2     :     0.000311
      f-2     :     0.000305
      f+3     :     0.000291
      f-3     :     0.000291
  2 F s       :     3.720215  s :     3.720215
      pz      :     1.743733  p :     5.330286
      px      :     1.793277
      py      :     1.793276
      dz2     :     0.020639  d :     0.046534
      dxz     :     0.008034
      dyz     :     0.008034
      dx2y2   :     0.004967
      dxy     :     0.004859
      f0      :     0.000812  f :     0.002858
      f+1     :     0.000424
      f-1     :     0.000424
      f+2     :     0.000311
      f-2     :     0.000305
      f+3     :     0.000291
      f-3     :     0.000291
  3 F s       :     3.720192  s :     3.720192
      pz      :     1.793255  p :     5.330220
      px      :     1.793256
      py      :     1.743709
      dz2     :     0.008887  d :     0.046542
      dxz     :     0.004859
      dyz     :     0.008035
      dx2y2   :     0.016726
      dxy     :     0.008035
      f0      :     0.000342  f :     0.002858
      f+1     :     0.000299
      f-1     :     0.000499
      f+2     :     0.000373
      f-2     :     0.000305
      f+3     :     0.000416
      f-3     :     0.000624
  4 F s       :     3.720230  s :     3.720230
      pz      :     1.793290  p :     5.330281
      px      :     1.793289
      py      :     1.743702
      dz2     :     0.008885  d :     0.046529
      dxz     :     0.004859
      dyz     :     0.008033
      dx2y2   :     0.016719
      dxy     :     0.008033
      f0      :     0.000342  f :     0.002858
      f+1     :     0.000299
      f-1     :     0.000499
      f+2     :     0.000373
      f-2     :     0.000305
      f+3     :     0.000416
      f-3     :     0.000624
  5 F s       :     3.720162  s :     3.720162
      pz      :     1.793228  p :     5.330143
      px      :     1.743687
      py      :     1.793227
      dz2     :     0.008889  d :     0.046554
      dxz     :     0.008037
      dyz     :     0.004859
      dx2y2   :     0.016733
      dxy     :     0.008037
      f0      :     0.000342  f :     0.002859
      f+1     :     0.000499
      f-1     :     0.000299
      f+2     :     0.000373
      f-2     :     0.000305
      f+3     :     0.000624
      f-3     :     0.000417
  6 F s       :     3.720252  s :     3.720252
      pz      :     1.793310  p :     5.330336
      px      :     1.743716
      py      :     1.793310
      dz2     :     0.008883  d :     0.046520
      dxz     :     0.008032
      dyz     :     0.004859
      dx2y2   :     0.016714
      dxy     :     0.008032
      f0      :     0.000342  f :     0.002857
      f+1     :     0.000498
      f-1     :     0.000299
      f+2     :     0.000373
      f-2     :     0.000305
      f+3     :     0.000624
      f-3     :     0.000416


                      *****************************
                      * MAYER POPULATION ANALYSIS *
                      *****************************

  NA   - Mulliken gross atomic population
  ZA   - Total nuclear charge
  QA   - Mulliken gross atomic charge
  VA   - Mayer's total valence
  BVA  - Mayer's bonded valence
  FA   - Mayer's free valence

  ATOM       NA         ZA         QA         VA         BVA        FA
  0 U     89.0640    92.0000     2.9360     5.4061     4.0003     1.4058
  1 F      9.4893     9.0000    -0.4893     1.1454     0.6974     0.4480
  2 F      9.4894     9.0000    -0.4894     1.1454     0.6974     0.4480
  3 F      9.4893     9.0000    -0.4893     1.1454     0.6974     0.4480
  4 F      9.4893     9.0000    -0.4893     1.1454     0.6974     0.4480
  5 F      9.4893     9.0000    -0.4893     1.1454     0.6974     0.4480
  6 F      9.4894     9.0000    -0.4894     1.1454     0.6974     0.4480

  Mayer bond orders larger than 0.1
B(  0-U ,  1-F ) :   0.6668 B(  0-U ,  2-F ) :   0.6667 B(  0-U ,  3-F ) :   0.6667 
B(  0-U ,  4-F ) :   0.6667 B(  0-U ,  5-F ) :   0.6667 B(  0-U ,  6-F ) :   0.6667 



                *******************************************
                * RELAXED MP2 DENSITY POPULATION ANALYSIS *
                *******************************************

------------------------------------------------------------------------------
                           ORCA POPULATION ANALYSIS
------------------------------------------------------------------------------
Input electron density              ... /home/nikolayandreadi_2125/_scratch/MP2/UF6.pmp2re
BaseName (.gbw .S,...)              ... /home/nikolayandreadi_2125/_scratch/MP2/UF6

                    ********************************
                    * MULLIKEN POPULATION ANALYSIS *
                    ********************************

-----------------------
MULLIKEN ATOMIC CHARGES
-----------------------
   0 U :    2.292669
   1 F :   -0.382052
   2 F :   -0.382170
   3 F :   -0.382105
   4 F :   -0.382127
   5 F :   -0.382040
   6 F :   -0.382175
Sum of atomic charges:   -0.0000000

--------------------------------
MULLIKEN REDUCED ORBITAL CHARGES
--------------------------------
  0 U s       :    12.090048  s :    12.090048
      pz      :     9.999599  p :    29.998797
      px      :     9.999598
      py      :     9.999601
      dz2     :     6.317456  d :    31.546595
      dxz     :     6.303895
      dyz     :     6.303894
      dx2y2   :     6.317456
      dxy     :     6.303894
      f0      :     2.457910  f :    16.071892
      f+1     :     2.313542
      f-1     :     2.313538
      f+2     :     2.226918
      f-2     :     2.017409
      f+3     :     2.371290
      f-3     :     2.371285
  1 F s       :     4.000569  s :     4.000569
      pz      :     1.690015  p :     5.344003
      px      :     1.826994
      py      :     1.826993
      dz2     :     0.009571  d :     0.035052
      dxz     :     0.007881
      dyz     :     0.007881
      dx2y2   :     0.004855
      dxy     :     0.004864
      f0      :     0.000473  f :     0.002429
      f+1     :     0.000383
      f-1     :     0.000383
      f+2     :     0.000305
      f-2     :     0.000304
      f+3     :     0.000290
      f-3     :     0.000290
  2 F s       :     4.000580  s :     4.000580
      pz      :     1.690078  p :     5.344113
      px      :     1.827018
      py      :     1.827017
      dz2     :     0.009569  d :     0.035049
      dxz     :     0.007881
      dyz     :     0.007881
      dx2y2   :     0.004855
      dxy     :     0.004864
      f0      :     0.000473  f :     0.002428
      f+1     :     0.000383
      f-1     :     0.000383
      f+2     :     0.000305
      f-2     :     0.000304
      f+3     :     0.000290
      f-3     :     0.000290
  3 F s       :     4.000577  s :     4.000577
      pz      :     1.826998  p :     5.344047
      px      :     1.826999
      py      :     1.690049
      dz2     :     0.006034  d :     0.035053
      dxz     :     0.004864
      dyz     :     0.007881
      dx2y2   :     0.008392
      dxy     :     0.007881
      f0      :     0.000325  f :     0.002429
      f+1     :     0.000296
      f-1     :     0.000368
      f+2     :     0.000348
      f-2     :     0.000304
      f+3     :     0.000377
      f-3     :     0.000410
  4 F s       :     4.000571  s :     4.000571
      pz      :     1.827016  p :     5.344081
      px      :     1.827016
      py      :     1.690049
      dz2     :     0.006034  d :     0.035048
      dxz     :     0.004864
      dyz     :     0.007880
      dx2y2   :     0.008391
      dxy     :     0.007880
      f0      :     0.000325  f :     0.002428
      f+1     :     0.000296
      f-1     :     0.000368
      f+2     :     0.000348
      f-2     :     0.000304
      f+3     :     0.000377
      f-3     :     0.000410
  5 F s       :     4.000577  s :     4.000577
      pz      :     1.826978  p :     5.343977
      px      :     1.690022
      py      :     1.826977
      dz2     :     0.006035  d :     0.035057
      dxz     :     0.007883
      dyz     :     0.004864
      dx2y2   :     0.008393
      dxy     :     0.007883
      f0      :     0.000325  f :     0.002429
      f+1     :     0.000368
      f-1     :     0.000296
      f+2     :     0.000348
      f-2     :     0.000304
      f+3     :     0.000410
      f-3     :     0.000377
  6 F s       :     4.000572  s :     4.000572
      pz      :     1.827032  p :     5.344130
      px      :     1.690067
      py      :     1.827031
      dz2     :     0.006033  d :     0.035045
      dxz     :     0.007879
      dyz     :     0.004864
      dx2y2   :     0.008390
      dxy     :     0.007879
      f0      :     0.000325  f :     0.002428
      f+1     :     0.000368
      f-1     :     0.000296
      f+2     :     0.000348
      f-2     :     0.000304
      f+3     :     0.000410
      f-3     :     0.000377


                     *******************************
                     * LOEWDIN POPULATION ANALYSIS *
                     *******************************

----------------------
LOEWDIN ATOMIC CHARGES
----------------------
   0 U :    0.132072
   1 F :   -0.021962
   2 F :   -0.022061
   3 F :   -0.021983
   4 F :   -0.022054
   5 F :   -0.021893
   6 F :   -0.022119

-------------------------------
LOEWDIN REDUCED ORBITAL CHARGES
-------------------------------
  0 U s       :    12.112554  s :    12.112554
      pz      :    10.034624  p :    30.103874
      px      :    10.034621
      py      :    10.034628
      dz2     :     6.613451  d :    32.382838
      dxz     :     6.385313
      dyz     :     6.385311
      dx2y2   :     6.613451
      dxy     :     6.385312
      f0      :     2.746492  f :    17.268662
      f+1     :     2.490708
      f-1     :     2.490704
      f+2     :     2.337235
      f-2     :     2.017483
      f+3     :     2.593023
      f-3     :     2.593017
  1 F s       :     3.722739  s :     3.722739
      pz      :     1.729219  p :     5.249207
      px      :     1.759995
      py      :     1.759993
      dz2     :     0.021106  d :     0.047126
      dxz     :     0.008091
      dyz     :     0.008091
      dx2y2   :     0.004972
      dxy     :     0.004866
      f0      :     0.000824  f :     0.002890
      f+1     :     0.000433
      f-1     :     0.000433
      f+2     :     0.000312
      f-2     :     0.000306
      f+3     :     0.000291
      f-3     :     0.000291
  2 F s       :     3.722750  s :     3.722750
      pz      :     1.729281  p :     5.249301
      px      :     1.760011
      py      :     1.760010
      dz2     :     0.021100  d :     0.047120
      dxz     :     0.008091
      dyz     :     0.008091
      dx2y2   :     0.004971
      dxy     :     0.004866
      f0      :     0.000824  f :     0.002890
      f+1     :     0.000433
      f-1     :     0.000433
      f+2     :     0.000312
      f-2     :     0.000306
      f+3     :     0.000291
      f-3     :     0.000291
  3 F s       :     3.722728  s :     3.722728
      pz      :     1.759988  p :     5.249235
      px      :     1.759989
      py      :     1.729259
      dz2     :     0.009005  d :     0.047129
      dxz     :     0.004866
      dyz     :     0.008092
      dx2y2   :     0.017073
      dxy     :     0.008092
      f0      :     0.000346  f :     0.002890
      f+1     :     0.000299
      f-1     :     0.000504
      f+2     :     0.000379
      f-2     :     0.000306
      f+3     :     0.000425
      f-3     :     0.000632
  4 F s       :     3.722765  s :     3.722765
      pz      :     1.760021  p :     5.249285
      px      :     1.760020
      py      :     1.729244
      dz2     :     0.009003  d :     0.047115
      dxz     :     0.004866
      dyz     :     0.008090
      dx2y2   :     0.017066
      dxy     :     0.008090
      f0      :     0.000346  f :     0.002890
      f+1     :     0.000299
      f-1     :     0.000504
      f+2     :     0.000379
      f-2     :     0.000306
      f+3     :     0.000425
      f-3     :     0.000632
  5 F s       :     3.722699  s :     3.722699
      pz      :     1.759961  p :     5.249162
      px      :     1.729242
      py      :     1.759960
      dz2     :     0.009008  d :     0.047141
      dxz     :     0.008094
      dyz     :     0.004866
      dx2y2   :     0.017080
      dxy     :     0.008094
      f0      :     0.000346  f :     0.002891
      f+1     :     0.000504
      f-1     :     0.000299
      f+2     :     0.000379
      f-2     :     0.000306
      f+3     :     0.000632
      f-3     :     0.000425
  6 F s       :     3.722787  s :     3.722787
      pz      :     1.760041  p :     5.249337
      px      :     1.729256
      py      :     1.760041
      dz2     :     0.009001  d :     0.047106
      dxz     :     0.008089
      dyz     :     0.004866
      dx2y2   :     0.017061
      dxy     :     0.008089
      f0      :     0.000346  f :     0.002889
      f+1     :     0.000504
      f-1     :     0.000299
      f+2     :     0.000378
      f-2     :     0.000306
      f+3     :     0.000632
      f-3     :     0.000425


                      *****************************
                      * MAYER POPULATION ANALYSIS *
                      *****************************

  NA   - Mulliken gross atomic population
  ZA   - Total nuclear charge
  QA   - Mulliken gross atomic charge
  VA   - Mayer's total valence
  BVA  - Mayer's bonded valence
  FA   - Mayer's free valence

  ATOM       NA         ZA         QA         VA         BVA        FA
  0 U     89.7073    92.0000     2.2927     6.2775     4.9921     1.2854
  1 F      9.3821     9.0000    -0.3821     1.3052     0.8770     0.4282
  2 F      9.3822     9.0000    -0.3822     1.3051     0.8769     0.4282
  3 F      9.3821     9.0000    -0.3821     1.3051     0.8769     0.4282
  4 F      9.3821     9.0000    -0.3821     1.3051     0.8770     0.4282
  5 F      9.3820     9.0000    -0.3820     1.3051     0.8769     0.4282
  6 F      9.3822     9.0000    -0.3822     1.3051     0.8769     0.4282

  Mayer bond orders larger than 0.1
B(  0-U ,  1-F ) :   0.8321 B(  0-U ,  2-F ) :   0.8319 B(  0-U ,  3-F ) :   0.8320 
B(  0-U ,  4-F ) :   0.8320 B(  0-U ,  5-F ) :   0.8320 B(  0-U ,  6-F ) :   0.8320 



----------------------------------
MP2 DERIVATIVE INTEGRAL GENERATION
----------------------------------


Input Wavefunction Amplitudes       ... /home/nikolayandreadi_2125/_scratch/MP2/UF6.mp2tsaa.tmp.proc19
[...]
      dx2y2   :     0.004957
      dxy     :     0.004851
      f0      :     0.000785  f :     0.002816
      f+1     :     0.000418
      f-1     :     0.000418
      f+2     :     0.000310
      f-2     :     0.000304
      f+3     :     0.000291
      f-3     :     0.000291
  3 F s       :     3.722793  s :     3.722793
      pz      :     1.794556  p :     5.331570
      px      :     1.794556
      py      :     1.742458
      dz2     :     0.008720  d :     0.045680
      dxz     :     0.004851
      dyz     :     0.007932
      dx2y2   :     0.016246
      dxy     :     0.007931
      f0      :     0.000340  f :     0.002816
      f+1     :     0.000298
      f-1     :     0.000488
      f+2     :     0.000369
      f-2     :     0.000304
      f+3     :     0.000410
      f-3     :     0.000607
  4 F s       :     3.722792  s :     3.722792
      pz      :     1.794555  p :     5.331563
      px      :     1.794555
      py      :     1.742453
      dz2     :     0.008720  d :     0.045681
      dxz     :     0.004851
      dyz     :     0.007931
      dx2y2   :     0.016246
      dxy     :     0.007931
      f0      :     0.000340  f :     0.002816
      f+1     :     0.000298
      f-1     :     0.000488
      f+2     :     0.000369
      f-2     :     0.000304
      f+3     :     0.000410
      f-3     :     0.000607
  5 F s       :     3.722791  s :     3.722791
      pz      :     1.794554  p :     5.331563
      px      :     1.742454
      py      :     1.794554
      dz2     :     0.008720  d :     0.045681
      dxz     :     0.007932
      dyz     :     0.004851
      dx2y2   :     0.016247
      dxy     :     0.007932
      f0      :     0.000340  f :     0.002816
      f+1     :     0.000488
      f-1     :     0.000298
      f+2     :     0.000369
      f-2     :     0.000304
      f+3     :     0.000607
      f-3     :     0.000410
  6 F s       :     3.722793  s :     3.722793
      pz      :     1.794557  p :     5.331570
      px      :     1.742457
      py      :     1.794557
      dz2     :     0.008720  d :     0.045680
      dxz     :     0.007931
      dyz     :     0.004851
      dx2y2   :     0.016246
      dxy     :     0.007931
      f0      :     0.000340  f :     0.002816
      f+1     :     0.000488
      f-1     :     0.000298
      f+2     :     0.000369
      f-2     :     0.000304
      f+3     :     0.000607
      f-3     :     0.000410


                      *****************************
                      * MAYER POPULATION ANALYSIS *
                      *****************************

  NA   - Mulliken gross atomic population
  ZA   - Total nuclear charge
  QA   - Mulliken gross atomic charge
  VA   - Mayer's total valence
  BVA  - Mayer's bonded valence
  FA   - Mayer's free valence

  ATOM       NA         ZA         QA         VA         BVA        FA
  0 U     89.0617    92.0000     2.9383     5.4321     4.0192     1.4129
  1 F      9.4897     9.0000    -0.4897     1.1501     0.6999     0.4502
  2 F      9.4897     9.0000    -0.4897     1.1501     0.6999     0.4502
  3 F      9.4897     9.0000    -0.4897     1.1501     0.6999     0.4502
  4 F      9.4897     9.0000    -0.4897     1.1501     0.6999     0.4502
  5 F      9.4897     9.0000    -0.4897     1.1501     0.6999     0.4502
  6 F      9.4897     9.0000    -0.4897     1.1501     0.6999     0.4502

  Mayer bond orders larger than 0.1
B(  0-U ,  1-F ) :   0.6699 B(  0-U ,  2-F ) :   0.6698 B(  0-U ,  3-F ) :   0.6699 
B(  0-U ,  4-F ) :   0.6699 B(  0-U ,  5-F ) :   0.6699 B(  0-U ,  6-F ) :   0.6699 



                *******************************************
                * RELAXED MP2 DENSITY POPULATION ANALYSIS *
                *******************************************

------------------------------------------------------------------------------
                           ORCA POPULATION ANALYSIS
------------------------------------------------------------------------------
Input electron density              ... /home/nikolayandreadi_2125/_scratch/MP2/UF6.pmp2re
BaseName (.gbw .S,...)              ... /home/nikolayandreadi_2125/_scratch/MP2/UF6

                    ********************************
                    * MULLIKEN POPULATION ANALYSIS *
                    ********************************

-----------------------
MULLIKEN ATOMIC CHARGES
-----------------------
   0 U :    2.293069
   1 F :   -0.382158
   2 F :   -0.382198
   3 F :   -0.382183
   4 F :   -0.382173
   5 F :   -0.382174
   6 F :   -0.382182
Sum of atomic charges:   -0.0000000

--------------------------------
MULLIKEN REDUCED ORBITAL CHARGES
--------------------------------
  0 U s       :    12.090634  s :    12.090634
      pz      :    10.001497  p :    30.004491
      px      :    10.001497
      py      :    10.001497
      dz2     :     6.317968  d :    31.545239
      dxz     :     6.303101
      dyz     :     6.303101
      dx2y2   :     6.317968
      dxy     :     6.303101
      f0      :     2.456573  f :    16.066567
      f+1     :     2.312777
      f-1     :     2.312777
      f+2     :     2.226499
      f-2     :     2.017349
      f+3     :     2.370296
      f-3     :     2.370296
  1 F s       :     4.000858  s :     4.000858
      pz      :     1.689860  p :     5.344115
      px      :     1.827128
      py      :     1.827127
      dz2     :     0.009449  d :     0.034773
      dxz     :     0.007810
      dyz     :     0.007810
      dx2y2   :     0.004848
      dxy     :     0.004856
      f0      :     0.000465  f :     0.002412
      f+1     :     0.000379
      f-1     :     0.000379
      f+2     :     0.000305
      f-2     :     0.000303
      f+3     :     0.000290
      f-3     :     0.000290
  2 F s       :     4.000861  s :     4.000861
      pz      :     1.689881  p :     5.344154
      px      :     1.827136
      py      :     1.827136
      dz2     :     0.009448  d :     0.034772
      dxz     :     0.007809
      dyz     :     0.007809
      dx2y2   :     0.004848
      dxy     :     0.004856
      f0      :     0.000465  f :     0.002412
      f+1     :     0.000379
      f-1     :     0.000379
      f+2     :     0.000305
      f-2     :     0.000303
      f+3     :     0.000290
      f-3     :     0.000290
  3 F s       :     4.000860  s :     4.000860
      pz      :     1.827133  p :     5.344139
      px      :     1.827133
      py      :     1.689873
      dz2     :     0.005998  d :     0.034772
      dxz     :     0.004856
      dyz     :     0.007810
      dx2y2   :     0.008299
      dxy     :     0.007810
      f0      :     0.000324  f :     0.002412
      f+1     :     0.000295
      f-1     :     0.000365
      f+2     :     0.000345
      f-2     :     0.000303
      f+3     :     0.000374
      f-3     :     0.000405
  4 F s       :     4.000859  s :     4.000859
      pz      :     1.827131  p :     5.344130
      px      :     1.827131
      py      :     1.689868
      dz2     :     0.005998  d :     0.034772
      dxz     :     0.004856
      dyz     :     0.007810
      dx2y2   :     0.008299
      dxy     :     0.007810
      f0      :     0.000324  f :     0.002412
      f+1     :     0.000295
      f-1     :     0.000365
      f+2     :     0.000345
      f-2     :     0.000303
      f+3     :     0.000374
      f-3     :     0.000405
  5 F s       :     4.000859  s :     4.000859
      pz      :     1.827131  p :     5.344130
      px      :     1.689869
      py      :     1.827131
      dz2     :     0.005998  d :     0.034772
      dxz     :     0.007810
      dyz     :     0.004856
      dx2y2   :     0.008299
      dxy     :     0.007810
      f0      :     0.000324  f :     0.002412
      f+1     :     0.000365
      f-1     :     0.000295
      f+2     :     0.000345
      f-2     :     0.000303
      f+3     :     0.000405
      f-3     :     0.000374
  6 F s       :     4.000860  s :     4.000860
      pz      :     1.827133  p :     5.344139
      px      :     1.689873
      py      :     1.827133
      dz2     :     0.005998  d :     0.034772
      dxz     :     0.007809
      dyz     :     0.004856
      dx2y2   :     0.008299
      dxy     :     0.007809
      f0      :     0.000324  f :     0.002412
      f+1     :     0.000365
      f-1     :     0.000295
      f+2     :     0.000345
      f-2     :     0.000303
      f+3     :     0.000405
      f-3     :     0.000374


                     *******************************
                     * LOEWDIN POPULATION ANALYSIS *
                     *******************************

----------------------
LOEWDIN ATOMIC CHARGES
----------------------
   0 U :    0.145901
   1 F :   -0.024298
   2 F :   -0.024335
   3 F :   -0.024321
   4 F :   -0.024313
   5 F :   -0.024312
   6 F :   -0.024322

-------------------------------
LOEWDIN REDUCED ORBITAL CHARGES
-------------------------------
  0 U s       :    12.116632  s :    12.116632
      pz      :    10.038414  p :    30.115243
      px      :    10.038414
      py      :    10.038414
      dz2     :     6.611162  d :    32.373879
      dxz     :     6.383851
      dyz     :     6.383851
      dx2y2   :     6.611162
      dxy     :     6.383851
      f0      :     2.741494  f :    17.248345
      f+1     :     2.487735
      f-1     :     2.487735
      f+2     :     2.335480
      f-2     :     2.017422
      f+3     :     2.589239
      f-3     :     2.589239
  1 F s       :     3.725339  s :     3.725339
      pz      :     1.728194  p :     5.249922
      px      :     1.760864
      py      :     1.760864
      dz2     :     0.020423  d :     0.046191
      dxz     :     0.007974
      dyz     :     0.007974
      dx2y2   :     0.004961
      dxy     :     0.004858
      f0      :     0.000796  f :     0.002847
      f+1     :     0.000426
      f-1     :     0.000426
      f+2     :     0.000311
      f-2     :     0.000305
      f+3     :     0.000291
      f-3     :     0.000291
  2 F s       :     3.725344  s :     3.725344
      pz      :     1.728215  p :     5.249957
      px      :     1.760871
      py      :     1.760871
      dz2     :     0.020421  d :     0.046188
      dxz     :     0.007974
      dyz     :     0.007974
      dx2y2   :     0.004961
      dxy     :     0.004858
      f0      :     0.000796  f :     0.002846
      f+1     :     0.000426
      f-1     :     0.000426
      f+2     :     0.000311
      f-2     :     0.000305
      f+3     :     0.000291
      f-3     :     0.000291
  3 F s       :     3.725342  s :     3.725342
      pz      :     1.760868  p :     5.249943
      px      :     1.760868
      py      :     1.728207
      dz2     :     0.008826  d :     0.046189
      dxz     :     0.004858
      dyz     :     0.007974
      dx2y2   :     0.016557
      dxy     :     0.007974
      f0      :     0.000343  f :     0.002847
      f+1     :     0.000299
      f-1     :     0.000493
      f+2     :     0.000374
      f-2     :     0.000305
      f+3     :     0.000418
      f-3     :     0.000614
  4 F s       :     3.725341  s :     3.725341
      pz      :     1.760867  p :     5.249936
      px      :     1.760867
      py      :     1.728202
      dz2     :     0.008826  d :     0.046189
      dxz     :     0.004858
      dyz     :     0.007974
      dx2y2   :     0.016557
      dxy     :     0.007974
      f0      :     0.000343  f :     0.002847
      f+1     :     0.000299
      f-1     :     0.000493
      f+2     :     0.000374
      f-2     :     0.000305
      f+3     :     0.000418
      f-3     :     0.000614
  5 F s       :     3.725341  s :     3.725341
      pz      :     1.760866  p :     5.249935
      px      :     1.728203
      py      :     1.760866
      dz2     :     0.008826  d :     0.046190
      dxz     :     0.007974
      dyz     :     0.004858
      dx2y2   :     0.016557
      dxy     :     0.007974
      f0      :     0.000343  f :     0.002847
      f+1     :     0.000493
      f-1     :     0.000299
      f+2     :     0.000374
      f-2     :     0.000305
      f+3     :     0.000614
      f-3     :     0.000418
  6 F s       :     3.725343  s :     3.725343
      pz      :     1.760869  p :     5.249944
      px      :     1.728206
      py      :     1.760869
      dz2     :     0.008826  d :     0.046189
      dxz     :     0.007974
      dyz     :     0.004858
      dx2y2   :     0.016557
      dxy     :     0.007974
      f0      :     0.000343  f :     0.002846
      f+1     :     0.000493
      f-1     :     0.000299
      f+2     :     0.000374
      f-2     :     0.000305
      f+3     :     0.000614
      f-3     :     0.000418


                      *****************************
                      * MAYER POPULATION ANALYSIS *
                      *****************************

  NA   - Mulliken gross atomic population
  ZA   - Total nuclear charge
  QA   - Mulliken gross atomic charge
  VA   - Mayer's total valence
  BVA  - Mayer's bonded valence
  FA   - Mayer's free valence

  ATOM       NA         ZA         QA         VA         BVA        FA
  0 U     89.7069    92.0000     2.2931     6.3077     5.0187     1.2891
  1 F      9.3822     9.0000    -0.3822     1.3105     0.8807     0.4298
  2 F      9.3822     9.0000    -0.3822     1.3105     0.8807     0.4298
  3 F      9.3822     9.0000    -0.3822     1.3105     0.8807     0.4298
  4 F      9.3822     9.0000    -0.3822     1.3105     0.8807     0.4298
  5 F      9.3822     9.0000    -0.3822     1.3105     0.8807     0.4298
  6 F      9.3822     9.0000    -0.3822     1.3105     0.8807     0.4298

  Mayer bond orders larger than 0.1
B(  0-U ,  1-F ) :   0.8365 B(  0-U ,  2-F ) :   0.8364 B(  0-U ,  3-F ) :   0.8364 
B(  0-U ,  4-F ) :   0.8365 B(  0-U ,  5-F ) :   0.8364 B(  0-U ,  6-F ) :   0.8364 



----------------------------------
MP2 DERIVATIVE INTEGRAL GENERATION
----------------------------------


Input Wavefunction Amplitudes       ... /home/nikolayandreadi_2125/_scratch/MP2/UF6.mp2tsaa.tmp.proc19
Input Correlated Electron Density   ... /home/nikolayandreadi_2125/_scratch/MP2/UF6.pmp2re
Input Energy Weighted Density       ... /home/nikolayandreadi_2125/_scratch/MP2/UF6.wmp2.tmp
Input SCF Electron Density          ... /home/nikolayandreadi_2125/_scratch/MP2/UF6.scfp.tmp

One-Electron Terms    ...
                        ... One-Electron Terms done
Prescreening matrices              ... done

Batch handling in the gradient evaluation:
Memory available                      ... 31500.0 MB
Memory per occupied orbital in Q2     ...   31.0 MB
Memory per occupied orbital in Q3     ...    0.1 MB
Total memory requirement per |i>      ...   31.1 MB
Max. Number of orbitals possible      ...   1011
Number of orbitals treated per batch  ...     33
Number of batches to be done          ...      1
Batch   0: i=   40 ...    72

---------------------------------------
MP2 TOTAL ENERGY:   -28549.118192162 Eh
---------------------------------------

-----------------------------------
NORM OF THE MP2 GRADIENT:  0.000024
-----------------------------------

-------------------------   --------------------
FINAL SINGLE POINT ENERGY    -28549.118192161928
-------------------------   --------------------

                                *** OPTIMIZATION RUN DONE ***

                            ***************************************
                            *     ORCA property calculations      *
                            ***************************************

                                    ---------------------
                                    Active property flags
                                    ---------------------
   (+) Dipole Moment


------------------------------------------------------------------------------
                       ORCA ELECTRIC PROPERTIES CALCULATION
------------------------------------------------------------------------------

Dipole Moment Calculation                       ... on
Quadrupole Moment Calculation                   ... off
Polarizability Calculation                      ... off
GBWName                                         ... /home/nikolayandreadi_2125/_scratch/MP2/UF6.gbw
Electron density file                           ... /home/nikolayandreadi_2125/_scratch/MP2/UF6.scfp.tmp
The origin for moment calculation is the CENTER OF MASS  = ( 0.000020, -0.000033 -0.000124)

-------------
DIPOLE MOMENT
-------------
                                X             Y             Z
Electronic contribution:      0.00032      -0.00054      -0.00203
Nuclear contribution   :     -0.00025       0.00042       0.00157
                        -----------------------------------------
Total Dipole Moment    :      0.00006      -0.00013      -0.00046
                        -----------------------------------------
Magnitude (a.u.)       :      0.00048
Magnitude (Debye)      :      0.00123


                         *** MP2 UNRELAXED DENSITY ***

------------------------------------------------------------------------------
                       ORCA ELECTRIC PROPERTIES CALCULATION
------------------------------------------------------------------------------

Dipole Moment Calculation                       ... on
Quadrupole Moment Calculation                   ... off
Polarizability Calculation                      ... off
GBWName                                         ... /home/nikolayandreadi_2125/_scratch/MP2/UF6.gbw
Electron density file                           ... /home/nikolayandreadi_2125/_scratch/MP2/UF6.pmp2ur
The origin for moment calculation is the CENTER OF MASS  = ( 0.000020, -0.000033 -0.000124)

-------------
DIPOLE MOMENT
-------------
                                X             Y             Z
Electronic contribution:      0.00031      -0.00053      -0.00197
Nuclear contribution   :     -0.00025       0.00042       0.00157
                        -----------------------------------------
Total Dipole Moment    :      0.00005      -0.00011      -0.00040
                        -----------------------------------------
Magnitude (a.u.)       :      0.00042
Magnitude (Debye)      :      0.00108


                           *** MP2 RELAXED DENSITY ***

------------------------------------------------------------------------------
                       ORCA ELECTRIC PROPERTIES CALCULATION
------------------------------------------------------------------------------

Dipole Moment Calculation                       ... on
Quadrupole Moment Calculation                   ... off
Polarizability Calculation                      ... off
GBWName                                         ... /home/nikolayandreadi_2125/_scratch/MP2/UF6.gbw
Electron density file                           ... /home/nikolayandreadi_2125/_scratch/MP2/UF6.pmp2re
The origin for moment calculation is the CENTER OF MASS  = ( 0.000020, -0.000033 -0.000124)

-------------
DIPOLE MOMENT
-------------
                                X             Y             Z
Electronic contribution:      0.00029      -0.00050      -0.00187
Nuclear contribution   :     -0.00025       0.00042       0.00157
                        -----------------------------------------
Total Dipole Moment    :      0.00004      -0.00008      -0.00030
                        -----------------------------------------
Magnitude (a.u.)       :      0.00031
Magnitude (Debye)      :      0.00079


Timings for individual modules:

Sum of individual times         ...     1308.344 sec (=  21.806 min)
GTO integral calculation        ...       10.983 sec (=   0.183 min)   0.8 %
Relativistic integrals          ...       20.813 sec (=   0.347 min)   1.6 %
SCF iterations                  ...      205.748 sec (=   3.429 min)  15.7 %
MP2 module                      ...     1055.471 sec (=  17.591 min)  80.7 %
Geometry relaxation             ...       15.329 sec (=   0.255 min)   1.2 %
                             ****ORCA TERMINATED NORMALLY****
TOTAL RUN TIME: 0 days 0 hours 21 minutes 52 seconds 865 msec
