
                                 *****************
                                 * O   R   C   A *
                                 *****************

           --- An Ab Initio, DFT and Semiempirical electronic structure package ---

                  #######################################################
                  #                        -***-                        #
                  #  Department of molecular theory and spectroscopy    #
                  #              Directorship: Frank Neese              #
                  # Max Planck Institute for Chemical Energy Conversion #
                  #                  D-45470 Muelheim/Ruhr              #
                  #                       Germany                       #
                  #                                                     #
                  #                  All rights reserved                #
                  #                        -***-                        #
                  #######################################################


                         Program Version 4.0.1.2 - RELEASE -


 With contributions from (in alphabetic order):
   Daniel Aravena         : Magnetic Properties
   Michael Atanasov       : Ab Initio Ligand Field Theory
   Ute Becker             : Parallelization
   Martin Brehm           : Molecular dynamics
   Dmytro Bykov           : SCF Hessian
   Vijay G. Chilkuri      : MRCI spin determinant printing
   Dipayan Datta          : RHF DLPNO-CCSD density
   Achintya Kumar Dutta   : EOM-CC, STEOM-CC
   Dmitry Ganyushin       : Spin-Orbit,Spin-Spin,Magnetic field MRCI
   Yang Guo               : DLPNO-NEVPT2, CIM, IAO-localization
   Andreas Hansen         : Spin unrestricted coupled pair/coupled cluster methods
   Lee Huntington         : MR-EOM, pCC
   Robert Izsak           : Overlap fitted RIJCOSX, COSX-SCS-MP3, EOM
   Christian Kollmar      : KDIIS, OOCD, Brueckner-CCSD(T), CCSD density
   Simone Kossmann        : Meta GGA functionals, TD-DFT gradient, OOMP2, MP2 Hessian
   Martin Krupicka        : AUTO-CI
   Dagmar Lenk            : GEPOL surface
   Dimitrios Liakos       : Extrapolation schemes; parallel MDCI
   Dimitrios Manganas     : ROCIS; embedding schemes
   Dimitrios Pantazis     : SARC Basis sets
   Taras Petrenko         : DFT Hessian,TD-DFT gradient, ASA, ECA, R-Raman, ABS, FL, XAS/XES, NRVS
   Peter Pinski           : DLPNO-MP2
   Christoph Reimann      : Effective Core Potentials
   Marius Retegan         : Local ZFS, SOC
   Christoph Riplinger    : Optimizer, TS searches, QM/MM, DLPNO-CCSD(T), (RO)-DLPNO pert. Triples
   Tobias Risthaus        : Range-separated hybrids, TD-DFT gradient, RPA, STAB
   Michael Roemelt        : Restricted open shell CIS
   Masaaki Saitow         : Open-shell DLPNO
   Barbara Sandhoefer     : DKH picture change effects
   Kantharuban Sivalingam : CASSCF convergence, NEVPT2, FIC-MRCI
   Georgi Stoychev        : AutoAux
   Boris Wezisla          : Elementary symmetry handling
   Frank Wennmohs         : Technical directorship


 We gratefully acknowledge several colleagues who have allowed us to
 interface, adapt or use parts of their codes:
   Stefan Grimme, W. Hujo, H. Kruse,             : VdW corrections, initial TS optimization,
                  C. Bannwarth                     DFT functionals, gCP, sTDA/sTD-DF
   Ed Valeev                                     : LibInt (2-el integral package), F12 methods
   Garnet Chan, S. Sharma, J. Yang, R. Olivares  : DMRG
   Ulf Ekstrom                                   : XCFun DFT Library
   Mihaly Kallay                                 : mrcc  (arbitrary order and MRCC methods)
   Andreas Klamt, Michael Diedenhofen            : otool_cosmo (COSMO solvation model)
   Jiri Pittner, Ondrej Demel                    : Mk-CCSD
   Frank Weinhold                                : gennbo (NPA and NBO analysis)
   Christopher J. Cramer and Donald G. Truhlar   : smd solvation model


 Your calculation uses the libint2 library for the computation of 2-el integrals
 For citations please refer to: http://libint.valeyev.net

 This ORCA versions uses:
   CBLAS   interface :  Fast vector & matrix operations
   LAPACKE interface :  Fast linear algebra routines
   SCALAPACK package :  Parallel linear algebra routines


Your calculation utilizes the basis: DKH-def2-TZVP
   Exponents from def2-TZVP [F. Weigend and R. Ahlrichs, Phys. Chem. Chem. Phys. 7, 3297 (2005)],
   recontracted for DKH2 by D. A. Pantazis.

Your calculation utilizes the auxiliary basis: SARC/J 
   decontracted def2/J up to Kr:
   F. Weigend, Phys. Chem. Chem. Phys. 8, 1057 (2006)
   and SARC auxiliary basis sets beyond Kr:
   D. A. Pantazis and F. Neese, J. Chem. Theory Comput. 5, 2229 (2009).
   D. A. Pantazis, X. Y. Chen, C. R. Landis and F. Neese, J. Chem. Theory Comput. 4, 908 (2008).
   D. A. Pantazis and F. Neese, Theor. Chem. Acc. 131, 1292 (2012).
   D. A. Pantazis and F. Neese, J. Chem. Theory Comput. 7, 677 (2011).

================================================================================
                                        WARNINGS
                       Please study these warnings very carefully!
================================================================================

Warning: TCutStore was < 0. Adjusted to Thresh (uncritical)

WARNING: In scalar relativistic gradient/hessian runs we need the one-center approximation
  ===> : %rel OneCenter is turned on

WARNING: The frozen-core approximation for MP2-gradient calculations is turned on by default.

WARNING: Geometry Optimization
  ===> : Switching off AutoStart
         For restart on a previous wavefunction, please use MOREAD

WARNING: Post HF methods need fully converged wavefunctions
  ===> : Setting SCFConvForced true
         You can overwrite this default with %scf ConvForced false 


INFO   : the flag for use of LIBINT has been found!

================================================================================
                                       INPUT FILE
================================================================================
NAME = /home/nikolayandreadi_2125/_scratch/MP2/UO2_SO4.inp
|  1> !Opt MP2 DKH-def2-TZVP DKH SARC/J SlowConv
|  2> 
|  3> %pal
|  4> nproc 42
|  5> end
|  6> 
|  7> %maxcore 13500
|  8> 
|  9> %basis
| 10> newgto U "SARC-DKH-TZVP" end
| 11> end
| 12> 
| 13> %scf
| 14> MaxIter 5000
| 15> end
| 16> 
| 17> %method
| 18> Z_MaxIter 5000
| 19> end
| 20> 
| 21> %geom
| 22>     MaxIter 200
| 23> end
| 24> 
| 25> * xyz 0 1
| 26>   O      1.630213   -0.307975    0.264091
| 27>   U      0.928988    1.041902   -0.605437
| 28>   O      0.543281    2.229719   -1.825131
| 29>   O      0.378377    2.433295    0.972960
| 30>   S     -1.211448    2.185768    1.024040
| 31>   O     -1.109252    0.866620    0.100194
| 32>   O     -1.618417    1.828875    2.356993
| 33>   O     -1.892700    3.226925    0.295489
| 34> **                         ****END OF INPUT****
================================================================================

                       *****************************
                       * Geometry Optimization Run *
                       *****************************

Geometry optimization settings:
Update method            Update   .... BFGS
Choice of coordinates    CoordSys .... Redundant Internals
Initial Hessian          InHess   .... Almoef's Model

Convergence Tolerances:
Energy Change            TolE     ....  5.0000e-06 Eh
Max. Gradient            TolMAXG  ....  3.0000e-04 Eh/bohr
RMS Gradient             TolRMSG  ....  1.0000e-04 Eh/bohr
Max. Displacement        TolMAXD  ....  4.0000e-03 bohr
RMS Displacement         TolRMSD  ....  2.0000e-03 bohr

------------------------------------------------------------------------------
                        ORCA OPTIMIZATION COORDINATE SETUP
------------------------------------------------------------------------------

The optimization will be done in new redundant internal coordinates
Making redundant internal coordinates   ...  (new redundants) done
Evaluating the initial hessian          ...  (Almloef) done
Evaluating the coordinates              ...  done
Calculating the B-matrix                .... done
Calculating the G-matrix                .... done
Diagonalizing the G-matrix              .... done
The first mode is                       ....   16
The number of degrees of freedom        ....   18

    -----------------------------------------------------------------
                    Redundant Internal Coordinates


    -----------------------------------------------------------------
         Definition                    Initial Value    Approx d2E/dq
    -----------------------------------------------------------------
      1. B(U   1,O   0)                  1.7521         0.497293   
      2. B(O   2,U   1)                  1.7457         0.509254   
      3. B(O   3,U   1)                  2.1750         0.105197   
      4. B(S   4,O   3)                  1.6098         0.672950   
      5. B(O   5,S   4)                  1.6137         0.663307   
      6. B(O   5,U   1)                  2.1640         0.109507   
      7. B(O   6,S   4)                  1.4387         1.261826   
      8. B(O   7,S   4)                  1.4418         1.247205   
      9. A(O   0,U   1,O   3)          103.5345         0.344144   
     10. A(O   0,U   1,O   2)          163.6165         0.453595   
     11. A(O   2,U   1,O   5)           94.2916         0.347862   
     12. A(O   2,U   1,O   3)           90.9065         0.345520   
     13. A(O   3,U   1,O   5)           64.9595         0.270152   
     14. A(O   0,U   1,O   5)           98.7850         0.346473   
     15. A(U   1,O   3,S   4)          100.0600         0.358447   
     16. A(O   6,S   4,O   7)          120.9066         0.625156   
     17. A(O   5,S   4,O   7)          109.3255         0.552531   
     18. A(O   3,S   4,O   7)          109.8502         0.554047   
     19. A(O   5,S   4,O   6)          110.2156         0.553755   
     20. A(O   3,S   4,O   6)          110.2987         0.555276   
     21. A(O   3,S   4,O   5)           92.5783         0.492116   
     22. A(U   1,O   5,S   4)          100.3762         0.360020   
     23. D(S   4,O   3,U   1,O   0)   -103.2961         0.001653   
     24. D(S   4,O   3,U   1,O   2)     84.5107         0.001653   
     25. D(S   4,O   3,U   1,O   5)     -9.8029         0.001653   
     26. D(O   7,S   4,O   3,U   1)    -99.6695         0.010368   
     27. D(O   6,S   4,O   3,U   1)    124.6234         0.010368   
     28. D(O   5,S   4,O   3,U   1)     11.9508         0.010368   
     29. D(S   4,O   5,U   1,O   0)    110.6935         0.001666   
     30. D(U   1,O   5,S   4,O   7)    100.0616         0.010099   
     31. D(U   1,O   5,S   4,O   6)   -124.7701         0.010099   
     32. D(U   1,O   5,S   4,O   3)    -12.0242         0.010099   
     33. D(S   4,O   5,U   1,O   3)      9.7886         0.001666   
     34. D(S   4,O   5,U   1,O   2)    -79.2060         0.001666   
    -----------------------------------------------------------------

Number of atoms                         .... 8
Number of degrees of freedom            .... 34

         *************************************************************
         *                GEOMETRY OPTIMIZATION CYCLE   1            *
         *************************************************************
---------------------------------
CARTESIAN COORDINATES (ANGSTROEM)
---------------------------------
  O      1.630213   -0.307975    0.264091
  U      0.928988    1.041902   -0.605437
  O      0.543281    2.229719   -1.825131
  O      0.378377    2.433295    0.972960
  S     -1.211448    2.185768    1.024040
  O     -1.109252    0.866620    0.100194
  O     -1.618417    1.828875    2.356993
  O     -1.892700    3.226925    0.295489

----------------------------
CARTESIAN COORDINATES (A.U.)
----------------------------
  NO LB      ZA    FRAG     MASS         X           Y           Z
   0 O     8.0000    0    15.999    3.080656   -0.581988    0.499060
   1 U    92.0000    0   238.029    1.755533    1.968909   -1.144110
   2 O     8.0000    0    15.999    1.026652    4.213558   -3.448998
   3 O     8.0000    0    15.999    0.715029    4.598261    1.838628
   4 S    16.0000    0    32.060   -2.289305    4.130503    1.935155
   5 O     8.0000    0    15.999   -2.096182    1.637674    0.189339
   6 O     8.0000    0    15.999   -3.058365    3.456073    4.454071
   7 O     8.0000    0    15.999   -3.576685    6.098005    0.558393

--------------------------------
INTERNAL COORDINATES (ANGSTROEM)
--------------------------------
 O      0   0   0     0.000000000000     0.00000000     0.00000000
 U      1   0   0     1.752131090569     0.00000000     0.00000000
 O      2   1   0     1.745661069330   163.61650647     0.00000000
 O      2   1   3     2.174967595938   103.53449887   208.78381810
 S      4   2   1     1.609789524365   100.05996524   256.70387250
 O      5   4   2     1.613718345944    92.57834931    11.95076758
 O      5   4   2     1.438666076829   110.29873140   124.62337809
 O      5   4   2     1.441838668421   109.85018899   260.33053590

---------------------------
INTERNAL COORDINATES (A.U.)
---------------------------
 O      0   0   0     0.000000000000     0.00000000     0.00000000
 U      1   0   0     3.311047911904     0.00000000     0.00000000
 O      2   1   0     3.298821343682   163.61650647     0.00000000
 O      2   1   3     4.110093106475   103.53449887   208.78381810
 S      4   2   1     3.042061334304   100.05996524   256.70387250
 O      5   4   2     3.049485731118    92.57834931    11.95076758
 O      5   4   2     2.718684883370   110.29873140   124.62337809
 O      5   4   2     2.724680212613   109.85018899   260.33053590

---------------------
BASIS SET INFORMATION
---------------------
There are 3 groups of distinct atoms

 Group   1 Type O   : 11s6p2d1f contracted to 6s3p2d1f pattern {611111/411/11/1}
 Group   2 Type U   : 29s20p16d12f contracted to 21s13p10d7f pattern {911111111111111111111/8111111111111/7111111111/6111111}
 Group   3 Type S   : 14s9p3d1f contracted to 8s4p2d1f pattern {71111111/6111/21/1}

Atom   0O    basis set group =>   1
Atom   1U    basis set group =>   2
Atom   2O    basis set group =>   1
Atom   3O    basis set group =>   1
Atom   4S    basis set group =>   3
Atom   5O    basis set group =>   1
Atom   6O    basis set group =>   1
Atom   7O    basis set group =>   1

INFORMATION: There is an auxiliary basis set but the global RI flag is NOT set

-------------------------------
AUXILIARY BASIS SET INFORMATION
-------------------------------
There are 3 groups of distinct atoms

 Group   1 Type O   : 12s5p4d2f1g contracted to 12s5p4d2f1g pattern {111111111111/11111/1111/11/1}
 Group   2 Type U   : 33s10p8d6f4g2h1i contracted to 33s10p8d6f4g2h1i pattern {111111111111111111111111111111111/1111111111/11111111/111111/1111/11/1}
 Group   3 Type S   : 14s5p5d2f1g contracted to 14s5p5d2f1g pattern {11111111111111/11111/11111/11/1}

Atom   0O    basis set group =>   1
Atom   1U    basis set group =>   2
Atom   2O    basis set group =>   1
Atom   3O    basis set group =>   1
Atom   4S    basis set group =>   3
Atom   5O    basis set group =>   1
Atom   6O    basis set group =>   1
Atom   7O    basis set group =>   1


           ************************************************************
           *        Program running with 42 parallel MPI-processes    *
           *              working on a common directory               *
           ************************************************************
------------------------------------------------------------------------------
                           ORCA GTO INTEGRAL CALCULATION
------------------------------------------------------------------------------

                         BASIS SET STATISTICS AND STARTUP INFO

 # of primitive gaussian shells          ...  224
 # of primitive gaussian functions       ...  592
 # of contracted shells                  ...  138
 # of contracted basis functions         ...  388
 Highest angular momentum                ...    3
 Maximum contraction depth               ...    9
 Integral package used                   ... LIBINT
 Integral threshhold            Thresh   ...  2.500e-11
 Primitive cut-off              TCut     ...  2.500e-12


------------------------------ INTEGRAL EVALUATION ----------------------------


 * One electron integrals 
 Pre-screening matrix                    ... done
 Shell pair data                         ... done (   0.002 sec)

------------------------------------------------------------------------------
                          ORCA RELATIVISTIC HAMILTONIAN
------------------------------------------------------------------------------

Relativistic Method            ... DKH
Order of DKH treatment         ...   2
Treatment of potential         ... V(e,N)
Eps parameter for DKH          ...   0.00000000010000
Nucleus model                  ... Point Nucleus
Speed of light used            ... 137.03598950000000


            ************************************************
            *        DOUGLAS-KROLL-HESS HAMILTONIAN        *
            *   Programmed by FN according to literature   *
            *        procedures. Special thanks to         *
            *       B.A. Hess, M. Reiher and A. Wolf       *
            *     University Erlangen-Nuernberg/Bonn       *
            ************************************************

Uncontracting the basis (first version)        ... done
Number of contracted basis functions           ...  388
Number of uncontracted basis functions         ...  592
Initializing the DKH file                      ... done
One center approximation for DKH is active
Finding unique atoms                      ... 3 atom types
 ATOMIC NUMBER   8
          ... doing integrals          ... Computing the DKH transformation
          ... Transforming V and pVp to p**2 space
          ... First transformation of V and pVp
          ... Second transformation of Veff
          ... Adding kinetic energy
          ... Back transformation of Veff to r-space
          ... Recontracting the H-matrix
          ... Computing the DKH correction to the H-matrix
          ... adding submatrics to 6 actual atoms
 ATOMIC NUMBER  92
          ... doing integrals          ... Computing the DKH transformation
          ... Transforming V and pVp to p**2 space
          ... First transformation of V and pVp
          ... Second transformation of Veff
          ... Adding kinetic energy
          ... Back transformation of Veff to r-space
          ... Recontracting the H-matrix
          ... Computing the DKH correction to the H-matrix
          ... adding submatrics to 1 actual atoms
 ATOMIC NUMBER  16
          ... doing integrals          ... Computing the DKH transformation
          ... Transforming V and pVp to p**2 space
          ... First transformation of V and pVp
          ... Second transformation of Veff
          ... Adding kinetic energy
          ... Back transformation of Veff to r-space
          ... Recontracting the H-matrix
          ... Computing the DKH correction to the H-matrix
          ... adding submatrics to 1 actual atoms
Storing DKH matrices                           ... done
Getting S**(-1/2)                              ... done
Reading the original H-matrix                  ... done
Adding DKH correction to the H-matrix          ... done
Storing the new modified H-matrix              ... done


           ************************************************************
           *        Program running with 42 parallel MPI-processes    *
           *              working on a common directory               *
           ************************************************************
-------------------------------------------------------------------------------
                                 ORCA SCF
-------------------------------------------------------------------------------

------------
SCF SETTINGS
------------
Hamiltonian:
 Ab initio Hamiltonian  Method          .... Hartree-Fock(GTOs)

Relativistic Settings:
 Scalar relativistic method             .... Douglas-Kroll-Hess
 Order of DKH procedure    Order        ....    2
 Mode of DKH-treatment                  .... V=V(e,N)
 Speed of light used       Velit        ....       137.035989
 Cutoff-constant           Eps          ....            1e-10 


General Settings:
 Integral files         IntName         .... /home/nikolayandreadi_2125/_scratch/MP2/UO2_SO4
 Hartree-Fock type      HFTyp           .... RHF
 Total Charge           Charge          ....    0
 Multiplicity           Mult            ....    1
 Number of Electrons    NEL             ....  156
 Basis Dimension        Dim             ....  388
 Nuclear Repulsion      ENuc            ....   1660.1063184814 Eh

Convergence Acceleration:
 DIIS                   CNVDIIS         .... on
   Start iteration      DIISMaxIt       ....     0
   Startup error        DIISStart       ....  0.200000
   # of expansion vecs  DIISMaxEq       ....     5
   Bias factor          DIISBfac        ....   1.050
   Max. coefficient     DIISMaxC        ....  10.000
 Newton-Raphson         CNVNR           .... off
 SOSCF                  CNVSOSCF        .... off
 Level Shifting         CNVShift        .... on
   Level shift para.    LevelShift      ....    0.2500
   Turn off err/grad.   ShiftErr        ....    0.0000
 Zerner damping         CNVZerner       .... off
 Static damping         CNVDamp         .... on
   Fraction old density DampFac         ....    0.8500
   Max. Damping (<1)    DampMax         ....    0.9800
   Min. Damping (>=0)   DampMin         ....    0.0000
   Turn off err/grad.   DampErr         ....    0.0300
 Fernandez-Rico         CNVRico         .... off

SCF Procedure:
 Maximum # iterations   MaxIter         ....  5000
 SCF integral mode      SCFMode         .... Direct
   Integral package                     .... LIBINT
 Reset frequeny         DirectResetFreq ....    20
 Integral Threshold     Thresh          ....  2.500e-11 Eh
 Primitive CutOff       TCut            ....  2.500e-12 Eh

Convergence Tolerance:
 Convergence Check Mode ConvCheckMode   .... Total+1el-Energy
 Convergence forced     ConvForced      .... 1
 Energy Change          TolE            ....  1.000e-08 Eh
 1-El. energy change                    ....  1.000e-05 Eh
 DIIS Error             TolErr          ....  5.000e-07


Diagonalization of the overlap matrix:
Smallest eigenvalue                        ... 3.464e-04
Time for diagonalization                   ...    0.031 sec
Threshold for overlap eigenvalues          ... 1.000e-08
Number of eigenvalues below threshold      ... 0
Time for construction of square roots      ...    0.019 sec
Total time needed                          ...    0.050 sec

-------------------
DFT GRID GENERATION
-------------------

General Integration Accuracy     IntAcc      ...  4.340
Radial Grid Type                 RadialGrid  ... Gauss-Chebyshev
Angular Grid (max. acc.)         AngularGrid ... Lebedev-110
Angular grid pruning method      GridPruning ... 3 (G Style)
Weight generation scheme         WeightScheme... Becke
Basis function cutoff            BFCut       ...    1.0000e-11
Integration weight cutoff        WCut        ...    1.0000e-14
Grids for H and He will be reduced by one unit

# of grid points (after initial pruning)     ...  16046 (   0.0 sec)
# of grid points (after weights+screening)   ...  15487 (   0.0 sec)
nearest neighbour list constructed           ...    0.0 sec
Grid point re-assignment to atoms done       ...    0.0 sec
Grid point division into batches done        ...    0.0 sec
Reduced shell lists constructed in    0.0 sec

Total number of grid points                  ...    15487
Total number of batches                      ...      244
Average number of points per batch           ...       63
Average number of grid points per atom       ...     1936
Average number of shells per batch           ...    16.43 (11.90%)
Average number of basis functions per batch  ...    46.43 (11.97%)
Average number of large shells per batch     ...    10.00 (60.87%)
Average number of large basis fcns per batch ...    29.14 (62.77%)
Maximum spatial batch extension              ...  31.58, 26.62, 28.51 au
Average spatial batch extension              ...   0.59,  0.57,  0.50 au

Time for grid setup =    0.097 sec

------------------------------
INITIAL GUESS: MODEL POTENTIAL
------------------------------
Loading DKH relativistic densities                 ... done
Calculating cut-offs                               ... done
Setting up the integral package                    ... done
Initializing the effective Hamiltonian             ... done
Starting the Coulomb interaction                   ... done (   0.0 sec)
Reading the grid                                   ... done
Mapping shells                                     ... done
Starting the XC term evaluation                    ... done (   0.0 sec)
Transforming the Hamiltonian                       ... done (   0.0 sec)
Diagonalizing the Hamiltonian                      ... done (   0.0 sec)
Back transforming the eigenvectors                 ... done (   0.0 sec)
Now organizing SCF variables                       ... done
                      ------------------
                      INITIAL GUESS DONE (   0.3 sec)
                      ------------------
--------------
SCF ITERATIONS
--------------
ITER       Energy         Delta-E        Max-DP      RMS-DP      [F,P]     Damp
               ***  Starting incremental Fock matrix formation  ***
  0 -28796.2399935182   0.000000000000 0.11348527  0.00110055  8.0208595 0.8500
  1 -28796.5258684607  -0.285874942496 0.06760681  0.00084500  6.8233858 0.8500
                               ***Turning on DIIS***
  2 -28796.6907903789  -0.164921918113 0.03949754  0.00058020  5.8045399 0.8500
  3 -28788.9231640651   7.767626313744 0.03082635  0.00037907  4.9376992 0.8500
  4 -28791.0006515756  -2.077487510505 0.02835882  0.00033316  4.1991268 0.8500
  5 -28794.5435906019  -3.542939026323 0.02779085  0.00031035  3.5700990 0.8500
  6 -28795.5067365842  -0.963145982270 0.02455108  0.00028128  3.0349687 0.8500
  7 -28796.9126012842  -1.405864699984 0.02143996  0.00025661  2.5799147 0.8500
  8 -28795.8509257642   1.061675520021 0.01707608  0.00021092  2.1931055 0.8500
  9 -28795.5249816408   0.325944123324 0.01406678  0.00017563  1.8642638 0.8500
 10 -28795.9526888446  -0.427707203726 0.01217948  0.00015166  1.5847225 0.8500
 11 -28796.4143413890  -0.461652544393 0.01061655  0.00013278  1.3471048 0.8500
 12 -28796.6862244550  -0.271883066056 0.00912601  0.00011556  1.1451217 0.8500
 13 -28796.7031166839  -0.016892228927 0.00767722  0.00009880  0.9734249 0.8500
 14 -28796.7149376825  -0.011820998519 0.00645585  0.00008422  0.8274686 0.8500
 15 -28796.8082819933  -0.093344310797 0.00549197  0.00007237  0.7033952 0.8500
 16 -28796.9244807095  -0.116198716212 0.00469838  0.00006257  0.5979263 0.8500
 17 -28797.0097678152  -0.085287105765 0.00400621  0.00005408  0.5082725 0.8500
 18 -28797.0570572662  -0.047289450991 0.00339553  0.00004660  0.4320618 0.8500
 19 -28797.0921943916  -0.035137125349 0.00287339  0.00004012  0.3672779 0.8500
               *** Restarting incremental Fock matrix formation ***
                                   *** Resetting DIIS ***
 20 -28797.3395039813  -0.247309589755 0.00232505  0.00003085  0.3122074 0.8500
 21 -28797.2072857319   0.132218249444 0.00193175  0.00002573  0.2655776 0.8500
 22 -28797.1894786751   0.017807056753 0.00172402  0.00002326  0.2258549 0.8500
 23 -28797.2541581522  -0.064679477084 0.00154833  0.00002141  0.1920214 0.8500
 24 -28797.2832781814  -0.029120029161 0.00133853  0.00001936  0.1632370 0.8500
 25 -28797.3146430627  -0.031364881324 0.00113763  0.00001737  0.1387604 0.8500
 26 -28797.3052606422   0.009382420551 0.00094275  0.00001535  0.1179546 0.8500
 27 -28797.2988555438   0.006405098327 0.00078517  0.00001353  0.1002680 0.8500
 28 -28797.3081004848  -0.009244940942 0.00066854  0.00001198  0.0852331 0.8500
 29 -28797.3212592266  -0.013158741800 0.00057279  0.00001064  0.0724526 0.8500
 30 -28797.3315533003  -0.010294073774 0.00048994  0.00000946  0.0615887 0.8500
 31 -28797.3362169161  -0.004663615757 0.00041723  0.00000839  0.0523538 0.8500
 32 -28797.3391677832  -0.002950867114 0.00035485  0.00000744  0.0445036 0.8500
 33 -28797.3431494468  -0.003981663584 0.00030238  0.00000659  0.0378304 0.8500
 34 -28797.3477290700  -0.004579623215 0.00025813  0.00000585  0.0321579 0.8500
 35 -28797.3517589615  -0.004029891450 0.00147022  0.00003466  0.0273359 0.0000
 36 -28797.3766236343  -0.024864672832 0.00022421  0.00000365  0.0002564 0.0000
 37 -28797.3765976074   0.000026026886 0.00028459  0.00000494  0.0001953 0.0000
 38 -28797.3748060754   0.001791531991 0.00029358  0.00000342  0.0001069 0.0000
 39 -28797.3721530774   0.002652998050 0.00004993  0.00000149  0.0000566 0.0000
               *** Restarting incremental Fock matrix formation ***
                                   *** Resetting DIIS ***
 40 -28797.3766801228  -0.004527045428 0.00001672  0.00000032  0.0000166 0.0000
 41 -28797.3765862105   0.000093912302 0.00000695  0.00000022  0.0000137 0.0000
 42 -28797.3768482807  -0.000262070196 0.00002053  0.00000028  0.0000088 0.0000
 43 -28797.3764956011   0.000352679570 0.00000749  0.00000018  0.0000063 0.0000
 44 -28797.3767228412  -0.000227240045 0.00000785  0.00000010  0.0000028 0.0000
 45 -28797.3766318369   0.000091004244 0.00000213  0.00000005  0.0000018 0.0000
 46 -28797.3766666279  -0.000034790926 0.00000104  0.00000002  0.0000012 0.0000
                            ***DIIS convergence achieved***

               *****************************************************
               *                     SUCCESS                       *
               *           SCF CONVERGED AFTER  47 CYCLES          *
               *****************************************************


----------------
TOTAL SCF ENERGY
----------------

Total Energy       :       -28797.37667492 Eh         -783616.45762 eV

Components:
Nuclear Repulsion  :         1660.10631848 Eh           45173.78952 eV
Electronic Energy  :       -30457.48299340 Eh         -828790.24713 eV
One Electron Energy:       -42406.42184577 Eh        -1153937.40347 eV
Two Electron Energy:        11948.93885237 Eh          325147.15633 eV

Virial components:
Potential Energy   :       -81422.40225108 Eh        -2215616.20500 eV
Kinetic Energy     :        52625.02557616 Eh         1431999.74739 eV
Virial Ratio       :            1.54721829


---------------
SCF CONVERGENCE
---------------

  Last Energy change         ...   -8.2945e-06  Tolerance :   1.0000e-08
  Last MAX-Density change    ...    7.9893e-07  Tolerance :   1.0000e-07
  Last RMS-Density change    ...    1.6460e-08  Tolerance :   5.0000e-09
  Last DIIS Error            ...    7.3175e-07  Tolerance :   5.0000e-07

             **** THE GBW FILE WAS UPDATED (/home/nikolayandreadi_2125/_scratch/MP2/UO2_SO4.gbw) ****
             **** DENSITY FILE WAS UPDATED (/home/nikolayandreadi_2125/_scratch/MP2/UO2_SO4.scfp.tmp) ****
             **** ENERGY FILE WAS UPDATED (/home/nikolayandreadi_2125/_scratch/MP2/UO2_SO4.en.tmp) ****
----------------
ORBITAL ENERGIES
----------------

  NO   OCC          E(Eh)            E(eV) 
   0   2.0000   -4260.672792   -115938.8009 
   1   2.0000    -804.622059    -21894.8793 
   2   2.0000    -675.274656    -18375.1576 
   3   2.0000    -675.273958    -18375.1386 
   4   2.0000    -675.272073    -18375.0873 
   5   2.0000    -206.675233     -5623.9190 
   6   2.0000    -170.058579     -4627.5292 
   7   2.0000    -170.057440     -4627.4982 
   8   2.0000    -170.041350     -4627.0604 
   9   2.0000    -135.487558     -3686.8039 
  10   2.0000    -135.487521     -3686.8029 
  11   2.0000    -135.480666     -3686.6163 
  12   2.0000    -135.480316     -3686.6068 
  13   2.0000    -135.479264     -3686.5782 
  14   2.0000     -92.506518     -2517.2303 
  15   2.0000     -54.649992     -1487.1019 
  16   2.0000     -42.415943     -1154.1965 
  17   2.0000     -42.413923     -1154.1415 
  18   2.0000     -42.383772     -1153.3211 
  19   2.0000     -29.175732      -793.9120 
  20   2.0000     -29.175516      -793.9061 
  21   2.0000     -29.157343      -793.4117 
  22   2.0000     -29.155909      -793.3726 
  23   2.0000     -29.147571      -793.1457 
  24   2.0000     -20.672951      -562.5396 
  25   2.0000     -20.668979      -562.4315 
  26   2.0000     -20.603879      -560.6601 
  27   2.0000     -20.603244      -560.6428 
  28   2.0000     -20.561347      -559.5027 
  29   2.0000     -20.559223      -559.4449 
  30   2.0000     -15.395621      -418.9361 
  31   2.0000     -15.394839      -418.9149 
  32   2.0000     -15.382167      -418.5700 
  33   2.0000     -15.381909      -418.5630 
  34   2.0000     -15.380770      -418.5320 
  35   2.0000     -15.371708      -418.2854 
  36   2.0000     -15.369948      -418.2376 
  37   2.0000     -12.938654      -352.0787 
  38   2.0000      -9.227577      -251.0951 
  39   2.0000      -9.022407      -245.5122 
  40   2.0000      -9.014968      -245.3098 
  41   2.0000      -8.999426      -244.8868 
  42   2.0000      -6.864619      -186.7958 
  43   2.0000      -6.863717      -186.7712 
  44   2.0000      -6.862630      -186.7417 
  45   2.0000      -4.486639      -122.0877 
  46   2.0000      -4.467799      -121.5750 
  47   2.0000      -4.465262      -121.5060 
  48   2.0000      -4.463859      -121.4678 
  49   2.0000      -4.463563      -121.4597 
  50   2.0000      -2.388650       -64.9985 
  51   2.0000      -1.619653       -44.0730 
  52   2.0000      -1.516467       -41.2652 
  53   2.0000      -1.407392       -38.2971 
  54   2.0000      -1.369985       -37.2792 
  55   2.0000      -1.344469       -36.5849 
  56   2.0000      -1.338514       -36.4228 
  57   2.0000      -1.252453       -34.0810 
  58   2.0000      -1.234515       -33.5929 
  59   2.0000      -1.028254       -27.9802 
  60   2.0000      -0.833544       -22.6819 
  61   2.0000      -0.718106       -19.5406 
  62   2.0000      -0.690322       -18.7846 
  63   2.0000      -0.682955       -18.5841 
  64   2.0000      -0.644897       -17.5485 
  65   2.0000      -0.640485       -17.4285 
  66   2.0000      -0.635225       -17.2853 
  67   2.0000      -0.618610       -16.8332 
  68   2.0000      -0.599376       -16.3099 
  69   2.0000      -0.596792       -16.2395 
  70   2.0000      -0.558352       -15.1935 
  71   2.0000      -0.545714       -14.8496 
  72   2.0000      -0.524528       -14.2731 
  73   2.0000      -0.518108       -14.0984 
  74   2.0000      -0.514367       -13.9966 
  75   2.0000      -0.500493       -13.6191 
  76   2.0000      -0.464641       -12.6435 
  77   2.0000      -0.451821       -12.2947 
  78   0.0000      -0.032045        -0.8720 
  79   0.0000       0.001337         0.0364 
  80   0.0000       0.004137         0.1126 
  81   0.0000       0.036439         0.9916 
  82   0.0000       0.043559         1.1853 
  83   0.0000       0.047037         1.2799 
  84   0.0000       0.049939         1.3589 
  85   0.0000       0.063029         1.7151 
  86   0.0000       0.099213         2.6997 
  87   0.0000       0.105689         2.8759 
  88   0.0000       0.111069         3.0223 
  89   0.0000       0.127052         3.4573 
  90   0.0000       0.139860         3.8058 
  91   0.0000       0.142445         3.8761 
  92   0.0000       0.149471         4.0673 
  93   0.0000       0.153126         4.1668 
  94   0.0000       0.172766         4.7012 
  95   0.0000       0.184259         5.0139 
  96   0.0000       0.186789         5.0828 
  97   0.0000       0.207677         5.6512 
  98   0.0000       0.213958         5.8221 
  99   0.0000       0.277568         7.5530 
 100   0.0000       0.292134         7.9494 
 101   0.0000       0.314016         8.5448 
 102   0.0000       0.330410         8.9909 
 103   0.0000       0.351807         9.5732 
 104   0.0000       0.370588        10.0842 
 105   0.0000       0.393043        10.6952 
 106   0.0000       0.414965        11.2918 
 107   0.0000       0.420504        11.4425 
 108   0.0000       0.428171        11.6511 
 109   0.0000       0.442472        12.0403 
 110   0.0000       0.459402        12.5010 
 111   0.0000       0.460964        12.5435 
 112   0.0000       0.487153        13.2561 
 113   0.0000       0.499740        13.5986 
 114   0.0000       0.522504        14.2181 
 115   0.0000       0.535263        14.5653 
 116   0.0000       0.543988        14.8027 
 117   0.0000       0.564994        15.3743 
 118   0.0000       0.571773        15.5587 
 119   0.0000       0.580123        15.7859 
 120   0.0000       0.586718        15.9654 
 121   0.0000       0.596145        16.2219 
 122   0.0000       0.602307        16.3896 
 123   0.0000       0.636029        17.3072 
 124   0.0000       0.654792        17.8178 
 125   0.0000       0.663172        18.0458 
 126   0.0000       0.668536        18.1918 
 127   0.0000       0.692485        18.8435 
 128   0.0000       0.697353        18.9759 
 129   0.0000       0.724863        19.7245 
 130   0.0000       0.734485        19.9864 
 131   0.0000       0.762701        20.7541 
 132   0.0000       0.768663        20.9164 
 133   0.0000       0.789222        21.4758 
 134   0.0000       0.810093        22.0437 
 135   0.0000       0.816450        22.2167 
 136   0.0000       0.829646        22.5758 
 137   0.0000       0.849840        23.1253 
 138   0.0000       0.854287        23.2463 
 139   0.0000       0.867646        23.6098 
 140   0.0000       0.876726        23.8569 
 141   0.0000       0.917035        24.9538 
 142   0.0000       0.932442        25.3730 
 143   0.0000       0.964639        26.2492 
 144   0.0000       0.969068        26.3697 
 145   0.0000       0.976087        26.5607 
 146   0.0000       1.089220        29.6392 
 147   0.0000       1.092180        29.7197 
 148   0.0000       1.145744        31.1773 
 149   0.0000       1.162052        31.6211 
 150   0.0000       1.169305        31.8184 
 151   0.0000       1.212445        32.9923 
 152   0.0000       1.227179        33.3932 
 153   0.0000       1.231624        33.5142 
 154   0.0000       1.279170        34.8080 
 155   0.0000       1.314417        35.7671 
 156   0.0000       1.318981        35.8913 
 157   0.0000       1.324565        36.0432 
 158   0.0000       1.389285        37.8044 
 159   0.0000       1.473371        40.0925 
 160   0.0000       1.512272        41.1510 
 161   0.0000       1.581106        43.0241 
 162   0.0000       1.587834        43.2071 
 163   0.0000       1.596812        43.4515 
 164   0.0000       1.610571        43.8259 
 165   0.0000       1.617676        44.0192 
 166   0.0000       1.672895        45.5218 
 167   0.0000       1.683160        45.8011 
 168   0.0000       1.702953        46.3397 
 169   0.0000       1.767440        48.0945 
 170   0.0000       1.771894        48.2157 
 171   0.0000       1.822855        49.6024 
 172   0.0000       1.840339        50.0782 
 173   0.0000       1.851780        50.3895 
 174   0.0000       1.861171        50.6450 
 175   0.0000       1.881955        51.2106 
 176   0.0000       1.898418        51.6586 
 177   0.0000       1.911930        52.0263 
 178   0.0000       1.942102        52.8473 
 179   0.0000       1.953429        53.1555 
 180   0.0000       1.958881        53.3039 
 181   0.0000       1.974707        53.7345 
 182   0.0000       1.988383        54.1067 
 183   0.0000       2.034033        55.3488 
 184   0.0000       2.083074        56.6833 
 185   0.0000       2.090511        56.8857 
 186   0.0000       2.127985        57.9054 
 187   0.0000       2.132620        58.0316 
 188   0.0000       2.177247        59.2459 
 189   0.0000       2.199037        59.8388 
 190   0.0000       2.240560        60.9688 
 191   0.0000       2.273838        61.8743 
 192   0.0000       2.281033        62.0701 
 193   0.0000       2.292212        62.3743 
 194   0.0000       2.346935        63.8634 
 195   0.0000       2.354568        64.0711 
 196   0.0000       2.409112        65.5553 
 197   0.0000       2.425515        66.0016 
 198   0.0000       2.438502        66.3550 
 199   0.0000       2.445548        66.5467 
 200   0.0000       2.466293        67.1112 
 201   0.0000       2.510742        68.3208 
 202   0.0000       2.521688        68.6186 
 203   0.0000       2.605534        70.9002 
 204   0.0000       2.635017        71.7025 
 205   0.0000       2.640291        71.8460 
 206   0.0000       2.673992        72.7630 
 207   0.0000       2.719065        73.9895 
 208   0.0000       2.739231        74.5383 
 209   0.0000       2.773016        75.4576 
 210   0.0000       2.796171        76.0877 
 211   0.0000       2.807708        76.4016 
 212   0.0000       2.862204        77.8845 
 213   0.0000       2.865787        77.9820 
 214   0.0000       2.921845        79.5074 
 215   0.0000       3.049099        82.9702 
 216   0.0000       3.104584        84.4800 
 217   0.0000       3.164168        86.1014 
 218   0.0000       3.174481        86.3820 
 219   0.0000       3.224247        87.7362 
 220   0.0000       3.252457        88.5038 
 221   0.0000       3.286200        89.4220 
 222   0.0000       3.315293        90.2137 
 223   0.0000       3.365310        91.5747 
 224   0.0000       3.402247        92.5799 
 225   0.0000       3.406357        92.6917 
 226   0.0000       3.444823        93.7384 
 227   0.0000       3.460646        94.1690 
 228   0.0000       3.512588        95.5824 
 229   0.0000       3.537813        96.2688 
 230   0.0000       3.561017        96.9002 
 231   0.0000       3.597897        97.9038 
 232   0.0000       3.713386       101.0464 
 233   0.0000       3.737170       101.6936 
 234   0.0000       3.774634       102.7130 
 235   0.0000       3.847093       104.6847 
 236   0.0000       3.857969       104.9807 
 237   0.0000       3.915348       106.5420 
 238   0.0000       3.934006       107.0498 
 239   0.0000       3.980139       108.3051 
 240   0.0000       4.051512       110.2473 
 241   0.0000       4.192279       114.0777 
 242   0.0000       4.250421       115.6598 
 243   0.0000       4.416714       120.1849 
 244   0.0000       4.573311       124.4461 
 245   0.0000       4.631075       126.0180 
 246   0.0000       5.381288       146.4323 
 247   0.0000       5.450782       148.3233 
 248   0.0000       5.452311       148.3649 
 249   0.0000       5.454248       148.4176 
 250   0.0000       5.470921       148.8713 
 251   0.0000       5.472229       148.9069 
 252   0.0000       5.482106       149.1757 
 253   0.0000       5.484671       149.2455 
 254   0.0000       5.491626       149.4347 
 255   0.0000       5.500051       149.6640 
 256   0.0000       5.504455       149.7838 
 257   0.0000       5.522282       150.2689 
 258   0.0000       5.535283       150.6227 
 259   0.0000       5.539381       150.7342 
 260   0.0000       5.546525       150.9286 
 261   0.0000       5.578627       151.8022 
 262   0.0000       5.595179       152.2526 
 263   0.0000       5.599713       152.3759 
 264   0.0000       5.601279       152.4186 
 265   0.0000       5.614763       152.7855 
 266   0.0000       5.623484       153.0228 
 267   0.0000       5.649706       153.7363 
 268   0.0000       5.652854       153.8220 
 269   0.0000       5.656057       153.9091 
 270   0.0000       5.684949       154.6953 
 271   0.0000       5.694805       154.9635 
 272   0.0000       5.710995       155.4041 
 273   0.0000       5.727107       155.8425 
 274   0.0000       5.744010       156.3025 
 275   0.0000       5.763889       156.8434 
 276   0.0000       5.769198       156.9879 
 277   0.0000       5.777751       157.2206 
 278   0.0000       5.788997       157.5266 
 279   0.0000       5.874951       159.8655 
 280   0.0000       5.909252       160.7989 
 281   0.0000       5.937271       161.5613 
 282   0.0000       5.947305       161.8344 
 283   0.0000       6.118860       166.5026 
 284   0.0000       6.119044       166.5076 
 285   0.0000       6.152376       167.4147 
 286   0.0000       6.210505       168.9964 
 287   0.0000       6.365913       173.2253 
 288   0.0000       6.689266       182.0242 
 289   0.0000       6.698281       182.2695 
 290   0.0000       6.716896       182.7760 
 291   0.0000       6.767425       184.1510 
 292   0.0000       6.806925       185.2258 
 293   0.0000       6.824173       185.6952 
 294   0.0000       6.832072       185.9101 
 295   0.0000       6.839831       186.1213 
 296   0.0000       6.854382       186.5172 
 297   0.0000       6.904736       187.8874 
 298   0.0000       6.920528       188.3172 
 299   0.0000       6.939457       188.8322 
 300   0.0000       7.040238       191.5746 
 301   0.0000       7.068434       192.3419 
 302   0.0000       7.081142       192.6877 
 303   0.0000       7.090874       192.9525 
 304   0.0000       7.114241       193.5883 
 305   0.0000       7.183441       195.4714 
 306   0.0000       7.209303       196.1751 
 307   0.0000       7.215535       196.3447 
 308   0.0000       7.232663       196.8108 
 309   0.0000       7.252165       197.3414 
 310   0.0000       7.292610       198.4420 
 311   0.0000       7.342489       199.7993 
 312   0.0000       7.368875       200.5173 
 313   0.0000       7.370303       200.5562 
 314   0.0000       7.413157       201.7222 
 315   0.0000       7.423712       202.0095 
 316   0.0000       7.489384       203.7965 
 317   0.0000       7.504525       204.2085 
 318   0.0000       7.665800       208.5970 
 319   0.0000       8.090844       220.1631 
 320   0.0000       8.448623       229.8987 
 321   0.0000       8.776097       238.8097 
 322   0.0000       9.024741       245.5757 
 323   0.0000       9.089772       247.3453 
 324   0.0000       9.115198       248.0371 
 325   0.0000       9.204772       250.4746 
 326   0.0000       9.678494       263.3652 
 327   0.0000       9.897445       269.3232 
 328   0.0000      13.606882       370.2621 
 329   0.0000      13.609635       370.3370 
 330   0.0000      13.631265       370.9256 
 331   0.0000      13.643629       371.2620 
 332   0.0000      13.719505       373.3267 
 333   0.0000      13.812799       375.8654 
 334   0.0000      14.083099       383.2206 
 335   0.0000      15.277003       415.7084 
 336   0.0000      15.362837       418.0440 
 337   0.0000      15.429037       419.8454 
 338   0.0000      15.472934       421.0399 
 339   0.0000      15.560034       423.4101 
 340   0.0000      15.564708       423.5372 
 341   0.0000      20.193797       549.5012 
 342   0.0000      44.202252      1202.8044 
 343   0.0000      46.713950      1271.1512 
 344   0.0000      46.725213      1271.4577 
 345   0.0000      46.756956      1272.3215 
 346   0.0000      46.768842      1272.6449 
 347   0.0000      47.068339      1280.7946 
 348   0.0000      47.313849      1287.4753 
 349   0.0000      47.568155      1294.3953 
 350   0.0000      47.663197      1296.9815 
 351   0.0000      53.167839      1446.7704 
 352   0.0000      53.169316      1446.8107 
 353   0.0000      53.179539      1447.0888 
 354   0.0000      53.183009      1447.1832 
 355   0.0000      53.227496      1448.3938 
 356   0.0000      53.272861      1449.6282 
 357   0.0000      53.403780      1453.1907 
 358   0.0000      78.899761      2146.9717 
 359   0.0000      78.995254      2149.5701 
 360   0.0000      79.058515      2151.2916 
 361   0.0000      79.104931      2152.5546 
 362   0.0000      79.151855      2153.8315 
 363   0.0000      79.190995      2154.8965 
 364   0.0000     122.404066      3330.7840 
 365   0.0000     205.110139      5581.3306 
 366   0.0000     235.940430      6420.2655 
 367   0.0000     235.948404      6420.4825 
 368   0.0000     235.968636      6421.0330 
 369   0.0000     235.974798      6421.2007 
 370   0.0000     236.137559      6425.6297 
 371   0.0000     264.270640      7191.1697 
 372   0.0000     264.433818      7195.6100 
 373   0.0000     264.508531      7197.6431 
 374   0.0000     785.563488     21376.2692 
 375   0.0000     792.505044     21565.1586 
 376   0.0000    1085.612283     29541.0121 
 377   0.0000    1085.723672     29544.0431 
 378   0.0000    1085.768916     29545.2743 
 379   0.0000    2430.747732     66144.0085 
 380   0.0000    3783.355306    102950.3318 
 381   0.0000    3783.432488    102952.4320 
 382   0.0000    3783.460737    102953.2007 
 383   0.0000    6095.698876    165872.3992 
 384   0.0000   13027.320026    354491.3999 
 385   0.0000   24922.226569    678168.2623 
 386   0.0000   43992.450816   1197095.4459 
 387   0.0000   84401.561764   2296683.2567 

                    ********************************
                    * MULLIKEN POPULATION ANALYSIS *
                    ********************************

-----------------------
MULLIKEN ATOMIC CHARGES
-----------------------
   0 O :   -0.670735
   1 U :    2.598723
   2 O :   -0.655305
   3 O :   -0.752499
   4 S :    1.453220
   5 O :   -0.750094
   6 O :   -0.613130
   7 O :   -0.610181
Sum of atomic charges:   -0.0000000

--------------------------------
MULLIKEN REDUCED ORBITAL CHARGES
--------------------------------
  0 O s       :     4.055446  s :     4.055446
      pz      :     1.564885  p :     4.570750
      px      :     1.556959
      py      :     1.448906
      dz2     :     0.008170  d :     0.041914
      dxz     :     0.005135
      dyz     :     0.009672
      dx2y2   :     0.009315
      dxy     :     0.009622
      f0      :     0.000257  f :     0.002625
      f+1     :     0.000120
      f-1     :     0.000439
      f+2     :     0.000438
      f-2     :     0.000569
      f+3     :     0.000455
      f-3     :     0.000345
  1 U s       :    12.347272  s :    12.347272
      pz      :     9.838862  p :    29.544718
      px      :     9.942935
      py      :     9.762920
      dz2     :     6.315052  d :    31.363175
      dxz     :     6.239644
      dyz     :     6.276305
      dx2y2   :     6.311538
      dxy     :     6.220636
      f0      :     2.246127  f :    16.146111
      f+1     :     2.115772
      f-1     :     2.416828
      f+2     :     2.434802
      f-2     :     2.452740
      f+3     :     2.295343
      f-3     :     2.184498
  2 O s       :     4.055651  s :     4.055651
      pz      :     1.446777  p :     4.553834
      px      :     1.598980
      py      :     1.508077
      dz2     :     0.011007  d :     0.043086
      dxz     :     0.006559
      dyz     :     0.010752
      dx2y2   :     0.007453
      dxy     :     0.007315
      f0      :     0.000301  f :     0.002733
      f+1     :     0.000154
      f-1     :     0.000801
      f+2     :     0.000610
      f-2     :     0.000500
      f+3     :     0.000183
      f-3     :     0.000184
  3 O s       :     3.901942  s :     3.901942
      pz      :     1.734599  p :     4.822560
      px      :     1.334707
      py      :     1.753254
      dz2     :     0.005472  d :     0.026715
      dxz     :     0.003751
      dyz     :     0.002784
      dx2y2   :     0.009586
      dxy     :     0.005122
      f0      :     0.000105  f :     0.001282
      f+1     :     0.000228
      f-1     :     0.000108
      f+2     :     0.000167
      f-2     :     0.000080
      f+3     :     0.000385
      f-3     :     0.000208
  4 S s       :     5.108408  s :     5.108408
      pz      :     2.694776  p :     8.182094
      px      :     2.756395
      py      :     2.730923
      dz2     :     0.243658  d :     1.112333
      dxz     :     0.210552
      dyz     :     0.252616
      dx2y2   :     0.236664
      dxy     :     0.168843
      f0      :     0.019822  f :     0.143945
      f+1     :     0.018597
      f-1     :     0.031322
      f+2     :     0.025636
      f-2     :     0.014077
      f+3     :     0.014121
      f-3     :     0.020370
  5 O s       :     3.902481  s :     3.902481
      pz      :     1.643374  p :     4.819600
      px      :     1.683902
      py      :     1.492324
      dz2     :     0.002622  d :     0.026743
      dxz     :     0.002985
      dyz     :     0.008401
      dx2y2   :     0.008406
      dxy     :     0.004329
      f0      :     0.000201  f :     0.001270
      f+1     :     0.000047
      f-1     :     0.000282
      f+2     :     0.000372
      f-2     :     0.000168
      f+3     :     0.000103
      f-3     :     0.000099
  6 O s       :     3.913468  s :     3.913468
      pz      :     1.326371  p :     4.656850
      px      :     1.662622
      py      :     1.667856
      dz2     :     0.015221  d :     0.040395
      dxz     :     0.011400
      dyz     :     0.010347
      dx2y2   :     0.001612
      dxy     :     0.001814
      f0      :     0.000768  f :     0.002417
      f+1     :     0.000615
      f-1     :     0.000558
      f+2     :     0.000214
      f-2     :     0.000226
      f+3     :     0.000019
      f-3     :     0.000017
  7 O s       :     3.908110  s :     3.908110
      pz      :     1.592424  p :     4.659657
      px      :     1.601253
      py      :     1.465980
      dz2     :     0.006361  d :     0.040021
      dxz     :     0.006180
      dyz     :     0.009396
      dx2y2   :     0.008635
      dxy     :     0.009448
      f0      :     0.000221  f :     0.002394
      f+1     :     0.000187
      f-1     :     0.000393
      f+2     :     0.000365
      f-2     :     0.000513
      f+3     :     0.000356
      f-3     :     0.000358


                     *******************************
                     * LOEWDIN POPULATION ANALYSIS *
                     *******************************

----------------------
LOEWDIN ATOMIC CHARGES
----------------------
   0 O :   -0.160016
   1 U :    0.768767
   2 O :   -0.139514
   3 O :   -0.265175
   4 S :    0.700541
   5 O :   -0.261921
   6 O :   -0.321659
   7 O :   -0.321024

-------------------------------
LOEWDIN REDUCED ORBITAL CHARGES
-------------------------------
  0 O s       :     3.555552  s :     3.555552
      pz      :     1.515416  p :     4.496819
      px      :     1.495603
      py      :     1.485800
      dz2     :     0.012048  d :     0.100310
      dxz     :     0.012385
      dyz     :     0.032008
      dx2y2   :     0.018543
      dxy     :     0.025326
      f0      :     0.000920  f :     0.007335
      f+1     :     0.000265
      f-1     :     0.000961
      f+2     :     0.001208
      f-2     :     0.001846
      f+3     :     0.001433
      f-3     :     0.000702
  1 U s       :    12.024937  s :    12.024937
      pz      :     9.921170  p :    29.785813
      px      :     9.999673
      py      :     9.864970
      dz2     :     6.441650  d :    32.335790
      dxz     :     6.364431
      dyz     :     6.637591
      dx2y2   :     6.502746
      dxy     :     6.389371
      f0      :     2.357649  f :    17.084692
      f+1     :     2.182077
      f-1     :     2.593711
      f+2     :     2.620138
      f-2     :     2.623585
      f+3     :     2.424352
      f-3     :     2.283181
  2 O s       :     3.551272  s :     3.551272
      pz      :     1.467125  p :     4.477408
      px      :     1.505737
      py      :     1.504546
      dz2     :     0.017171  d :     0.103201
      dxz     :     0.012293
      dyz     :     0.045679
      dx2y2   :     0.015602
      dxy     :     0.012456
      f0      :     0.000705  f :     0.007633
      f+1     :     0.000404
      f-1     :     0.002376
      f+2     :     0.001868
      f-2     :     0.001341
      f+3     :     0.000481
      f-3     :     0.000459
  3 O s       :     3.479489  s :     3.479489
      pz      :     1.660967  p :     4.724991
      px      :     1.387093
      py      :     1.676932
      dz2     :     0.010659  d :     0.057551
      dxz     :     0.007478
      dyz     :     0.008704
      dx2y2   :     0.020792
      dxy     :     0.009918
      f0      :     0.000243  f :     0.003143
      f+1     :     0.000604
      f-1     :     0.000297
      f+2     :     0.000374
      f-2     :     0.000219
      f+3     :     0.000922
      f-3     :     0.000484
  4 S s       :     4.700996  s :     4.700996
      pz      :     2.825986  p :     8.388600
      px      :     2.772266
      py      :     2.790349
      dz2     :     0.389777  d :     1.796385
      dxz     :     0.321618
      dyz     :     0.425750
      dx2y2   :     0.388365
      dxy     :     0.270874
      f0      :     0.058432  f :     0.413477
      f+1     :     0.054849
      f-1     :     0.085444
      f+2     :     0.071523
      f-2     :     0.042162
      f+3     :     0.044976
      f-3     :     0.056091
  5 O s       :     3.479097  s :     3.479097
      pz      :     1.581561  p :     4.721688
      px      :     1.637728
      py      :     1.502399
      dz2     :     0.006020  d :     0.057987
      dxz     :     0.007183
      dyz     :     0.019019
      dx2y2   :     0.019013
      dxy     :     0.006751
      f0      :     0.000457  f :     0.003149
      f+1     :     0.000111
      f-1     :     0.000518
      f+2     :     0.001004
      f-2     :     0.000301
      f+3     :     0.000414
      f-3     :     0.000343
  6 O s       :     3.559241  s :     3.559241
      pz      :     1.473232  p :     4.692966
      px      :     1.608489
      py      :     1.611246
      dz2     :     0.030004  d :     0.065108
      dxz     :     0.016094
      dyz     :     0.014726
      dx2y2   :     0.001965
      dxy     :     0.002318
      f0      :     0.001395  f :     0.004344
      f+1     :     0.001165
      f-1     :     0.001036
      f+2     :     0.000305
      f-2     :     0.000379
      f+3     :     0.000029
      f-3     :     0.000035
  7 O s       :     3.554556  s :     3.554556
      pz      :     1.586270  p :     4.697189
      px      :     1.583528
      py      :     1.527391
      dz2     :     0.007123  d :     0.064961
      dxz     :     0.010323
      dyz     :     0.019332
      dx2y2   :     0.010750
      dxy     :     0.017434
      f0      :     0.000546  f :     0.004318
      f+1     :     0.000243
      f-1     :     0.000537
      f+2     :     0.000548
      f-2     :     0.001205
      f+3     :     0.000779
      f-3     :     0.000460


                      *****************************
                      * MAYER POPULATION ANALYSIS *
                      *****************************

  NA   - Mulliken gross atomic population
  ZA   - Total nuclear charge
  QA   - Mulliken gross atomic charge
  VA   - Mayer's total valence
  BVA  - Mayer's bonded valence
  FA   - Mayer's free valence

  ATOM       NA         ZA         QA         VA         BVA        FA
  0 O      8.6707     8.0000    -0.6707     1.3816     1.3816     0.0000
  1 U     89.4013    92.0000     2.5987     3.4665     3.4665    -0.0000
  2 O      8.6553     8.0000    -0.6553     1.3966     1.3966     0.0000
  3 O      8.7525     8.0000    -0.7525     1.5636     1.5636    -0.0000
  4 S     14.5468    16.0000     1.4532     5.7709     5.7709    -0.0000
  5 O      8.7501     8.0000    -0.7501     1.5659     1.5659     0.0000
  6 O      8.6131     8.0000    -0.6131     1.8765     1.8765    -0.0000
  7 O      8.6102     8.0000    -0.6102     1.8538     1.8538    -0.0000

  Mayer bond orders larger than 0.1
B(  0-O ,  1-U ) :   1.2329 B(  1-U ,  2-O ) :   1.2375 B(  1-U ,  3-O ) :   0.4331 
B(  1-U ,  5-O ) :   0.4451 B(  3-O ,  4-S ) :   1.0624 B(  4-S ,  5-O ) :   1.0530 
B(  4-S ,  6-O ) :   1.8040 B(  4-S ,  7-O ) :   1.7763 

-------
TIMINGS
-------

Total SCF time: 0 days 0 hours 1 min 33 sec 

Total time                  ....      93.235 sec
Sum of individual times     ....      92.351 sec  ( 99.1%)

Fock matrix formation       ....      84.591 sec  ( 90.7%)
Diagonalization             ....       4.368 sec  (  4.7%)
Density matrix formation    ....       0.205 sec  (  0.2%)
Population analysis         ....       0.103 sec  (  0.1%)
Initial guess               ....       0.195 sec  (  0.2%)
Orbital Transformation      ....       0.000 sec  (  0.0%)
Orbital Orthonormalization  ....       0.000 sec  (  0.0%)
DIIS solution               ....       2.791 sec  (  3.0%)


           ************************************************************
           *        Program running with 42 parallel MPI-processes    *
           *              working on a common directory               *
           ************************************************************

------------------------------------------------------------------------------
                                ORCA  MP2 
------------------------------------------------------------------------------

Freezing NCore=90 chemical core electrons
MP2 will be done in the AO integral direct mode
The Q1-step will be done using symmetric double matrices
Dimension of the basis                    ...  388
Memory devoted for MP2                    ... 13500 MB   
Memory needed for all in one shot         ...  224 MB
Number of MOs that can be treated together...   59      
MP2 density construction                  ... relaxed
The MP2 gradient is requested => amplitudes will be stored on disk
Total number of MOs              ...   33
Number of MOs treated per batch  ...    1 
Number of batches necessary      ...    1 
OPERATORS   0/  0 PASS   0
-----------------------------------------------
 MP2 CORRELATION ENERGY   :     -2.575026023 Eh
-----------------------------------------------


---------------------
MP2 DENSITY FORMATION
---------------------

Completing the external part of the density      ... done
Storing the unrelaxed density                    ... done

Calculating G(D)                                 ... done
Completing the Lagrangian                        ... done
Solving the Z-vector equations                   ... 

------------------------------------------------------------------------------
                           ORCA CP-SCF CALCULATION
------------------------------------------------------------------------------

Input orbitals are from        ... /home/nikolayandreadi_2125/_scratch/MP2/UO2_SO4.gbw
Input Perturbation             ... /home/nikolayandreadi_2125/_scratch/MP2/UO2_SO4.pin.tmp
Wavefunction output            ... /home/nikolayandreadi_2125/_scratch/MP2/UO2_SO4.pout.tmp
Perturbation mode              ... Real perturbation
Solver                         ... DIIS
   MaxDIIS                     ... 20
   Levelshift                  ...    3.000e-01 Eh
Max. number of iterations      ... 5000
Convergence tolerance          ... 1.000e-08
Integral handling              ... Direct
Number of perturbations        ... 1
Number of operators            ... 1
Orbital ranges used for CP-SCF:
 Operator 0:  Orbitals   0... 77  to  78...387
Variables per vector in CP-SCF ... 24180
Number of vectors sought       ... 1

Solving the CP-SCF equations by a DIIS algorithm

-----------------
CP-SCF ITERATIONS
-----------------
  Iteration   0: MaxR=  0.938826406
  Iteration   1: MaxR=  0.838611963
  Iteration   2: MaxR=  0.221685992
  Iteration   3: MaxR=  0.141403512
  Iteration   4: MaxR=  0.067095629
  Iteration   5: MaxR=  0.029508750
  Iteration   6: MaxR=  0.009644531
  Iteration   7: MaxR=  0.004313456
  Iteration   8: MaxR=  0.001473785
  Iteration   9: MaxR=  0.000582172
  Iteration  10: MaxR=  0.000241442
  Iteration  11: MaxR=  0.000129982
  Iteration  12: MaxR=  0.000075897
  Iteration  13: MaxR=  0.000042894
  Iteration  14: MaxR=  0.000024358
  Iteration  15: MaxR=  0.000013409
  Iteration  16: MaxR=  0.000006018
  Iteration  17: MaxR=  0.000002447
  Iteration  18: MaxR=  0.000001100
  Iteration  19: MaxR=  0.000000485
  Iteration  20: MaxR=  0.000000188
  Iteration  21: MaxR=  0.000000092
  Iteration  22: MaxR=  0.000000055
  Iteration  23: MaxR=  0.000000032
  Iteration  24: MaxR=  0.000000017
  Iteration  25: MaxR=  0.000000007
                              *** THE CP-SCF HAS CONVERGED *** 
                                                 ... done
Finalizing the relaxed density                   ... done
Transforming P to the AO basis                   ... done
Storing the relaxed density                      ... done

------------------------------------
ENERGY WEIGHTED DENSITY FINALIZATION
------------------------------------

Gathering the parts of the W-matrix              ...                                                      done
Forming the Z-density                            ... done
Transforming Z to the AO basis                   ... done
Calculating G(Z)                                 ... done
Finalizing the W-matrix                          ...                                                      done
Transforming W to the AO basis and storing       ... done

                *********************************************
                * UNRELAXED MP2 DENSITY POPULATION ANALYSIS *
                *********************************************

------------------------------------------------------------------------------
                           ORCA POPULATION ANALYSIS
------------------------------------------------------------------------------
Input electron density              ... /home/nikolayandreadi_2125/_scratch/MP2/UO2_SO4.pmp2ur
BaseName (.gbw .S,...)              ... /home/nikolayandreadi_2125/_scratch/MP2/UO2_SO4

                    ********************************
                    * MULLIKEN POPULATION ANALYSIS *
                    ********************************

-----------------------
MULLIKEN ATOMIC CHARGES
-----------------------
   0 O :   -0.619319
   1 U :    2.452285
   2 O :   -0.602164
   3 O :   -0.722464
   4 S :    1.385962
   5 O :   -0.719715
   6 O :   -0.588659
   7 O :   -0.585927
Sum of atomic charges:   -0.0000000

--------------------------------
MULLIKEN REDUCED ORBITAL CHARGES
--------------------------------
  0 O s       :     4.047131  s :     4.047131
      pz      :     1.537505  p :     4.494947
      px      :     1.531142
      py      :     1.426300
      dz2     :     0.014154  d :     0.071738
      dxz     :     0.011071
      dyz     :     0.015648
      dx2y2   :     0.015304
      dxy     :     0.015560
      f0      :     0.000658  f :     0.005503
      f+1     :     0.000508
      f-1     :     0.000874
      f+2     :     0.000849
      f-2     :     0.000975
      f+3     :     0.000870
      f-3     :     0.000769
  1 U s       :    12.341430  s :    12.341430
      pz      :     9.819467  p :    29.485804
      px      :     9.919237
      py      :     9.747100
      dz2     :     6.329211  d :    31.418600
      dxz     :     6.251315
      dyz     :     6.282779
      dx2y2   :     6.323360
      dxy     :     6.231934
      f0      :     2.269358  f :    16.301881
      f+1     :     2.138098
      f-1     :     2.442136
      f+2     :     2.453378
      f-2     :     2.472671
      f+3     :     2.316712
      f-3     :     2.209530
  2 O s       :     4.047207  s :     4.047207
      pz      :     1.424155  p :     4.476478
      px      :     1.570143
      py      :     1.482180
      dz2     :     0.016984  d :     0.072861
      dxz     :     0.012518
      dyz     :     0.016677
      dx2y2   :     0.013400
      dxy     :     0.013282
      f0      :     0.000729  f :     0.005619
      f+1     :     0.000555
      f-1     :     0.001238
      f+2     :     0.001018
      f-2     :     0.000913
      f+3     :     0.000582
      f-3     :     0.000583
  3 O s       :     3.894978  s :     3.894978
      pz      :     1.711485  p :     4.765069
      px      :     1.322743
      py      :     1.730840
      dz2     :     0.011774  d :     0.058329
      dxz     :     0.010306
      dyz     :     0.009111
      dx2y2   :     0.015573
      dxy     :     0.011565
      f0      :     0.000502  f :     0.004088
      f+1     :     0.000626
      f-1     :     0.000499
      f+2     :     0.000572
      f-2     :     0.000480
      f+3     :     0.000789
      f-3     :     0.000621
  4 S s       :     5.114249  s :     5.114249
      pz      :     2.702017  p :     8.208741
      px      :     2.766438
      py      :     2.740286
      dz2     :     0.249057  d :     1.139267
      dxz     :     0.217478
      dyz     :     0.256506
      dx2y2   :     0.240813
      dxy     :     0.175413
      f0      :     0.020989  f :     0.151781
      f+1     :     0.019684
      f-1     :     0.032499
      f+2     :     0.026719
      f-2     :     0.015239
      f+3     :     0.015189
      f-3     :     0.021463
  5 O s       :     3.895474  s :     3.895474
      pz      :     1.624702  p :     4.761739
      px      :     1.660045
      py      :     1.476992
      dz2     :     0.009052  d :     0.058422
      dxz     :     0.009606
      dyz     :     0.014226
      dx2y2   :     0.014681
      dxy     :     0.010856
      f0      :     0.000588  f :     0.004080
      f+1     :     0.000440
      f-1     :     0.000677
      f+2     :     0.000771
      f-2     :     0.000566
      f+3     :     0.000523
      f-3     :     0.000514
  6 O s       :     3.906643  s :     3.906643
      pz      :     1.315326  p :     4.608716
      px      :     1.644045
      py      :     1.649344
      dz2     :     0.020337  d :     0.068133
      dxz     :     0.016918
      dyz     :     0.015932
      dx2y2   :     0.007379
      dxy     :     0.007567
      f0      :     0.001192  f :     0.005168
      f+1     :     0.001032
      f-1     :     0.000976
      f+2     :     0.000609
      f-2     :     0.000620
      f+3     :     0.000370
      f-3     :     0.000369
  7 O s       :     3.901372  s :     3.901372
      pz      :     1.576009  p :     4.611526
      px      :     1.583973
      py      :     1.451543
      dz2     :     0.012116  d :     0.067882
      dxz     :     0.011779
      dyz     :     0.014785
      dx2y2   :     0.014317
      dxy     :     0.014884
      f0      :     0.000606  f :     0.005147
      f+1     :     0.000568
      f-1     :     0.000796
      f+2     :     0.000761
      f-2     :     0.000900
      f+3     :     0.000755
      f-3     :     0.000762


                     *******************************
                     * LOEWDIN POPULATION ANALYSIS *
                     *******************************

----------------------
LOEWDIN ATOMIC CHARGES
----------------------
   0 O :   -0.123087
   1 U :    0.659234
   2 O :   -0.101961
   3 O :   -0.243406
   4 S :    0.656507
   5 O :   -0.239953
   6 O :   -0.303905
   7 O :   -0.303429

-------------------------------
LOEWDIN REDUCED ORBITAL CHARGES
-------------------------------
  0 O s       :     3.550346  s :     3.550346
      pz      :     1.491053  p :     4.428872
      px      :     1.472520
      py      :     1.465299
      dz2     :     0.018525  d :     0.133232
      dxz     :     0.018683
      dyz     :     0.038776
      dx2y2   :     0.025185
      dxy     :     0.032063
      f0      :     0.001373  f :     0.010637
      f+1     :     0.000671
      f-1     :     0.001451
      f+2     :     0.001685
      f-2     :     0.002352
      f+3     :     0.001935
      f-3     :     0.001171
  1 U s       :    12.020918  s :    12.020918
      pz      :     9.902106  p :    29.726741
      px      :     9.975668
      py      :     9.848967
      dz2     :     6.452348  d :    32.369142
      dxz     :     6.372802
      dyz     :     6.636990
      dx2y2   :     6.510363
      dxy     :     6.396639
      f0      :     2.379175  f :    17.223965
      f+1     :     2.203322
      f-1     :     2.615456
      f+2     :     2.635782
      f-2     :     2.640248
      f+3     :     2.443958
      f-3     :     2.306025
  2 O s       :     3.546108  s :     3.546108
      pz      :     1.446772  p :     4.408588
      px      :     1.480336
      py      :     1.481481
      dz2     :     0.023930  d :     0.136296
      dxz     :     0.018747
      dyz     :     0.052702
      dx2y2   :     0.022046
      dxy     :     0.018871
      f0      :     0.001182  f :     0.010968
      f+1     :     0.000833
      f-1     :     0.002951
      f+2     :     0.002379
      f-2     :     0.001829
      f+3     :     0.000908
      f-3     :     0.000887
  3 O s       :     3.475329  s :     3.475329
      pz      :     1.639804  p :     4.669721
      px      :     1.373846
      py      :     1.656070
      dz2     :     0.017570  d :     0.092119
      dxz     :     0.014348
      dyz     :     0.015565
      dx2y2   :     0.027893
      dxy     :     0.016743
      f0      :     0.000669  f :     0.006237
      f+1     :     0.001054
      f-1     :     0.000716
      f+2     :     0.000814
      f-2     :     0.000645
      f+3     :     0.001396
      f-3     :     0.000943
  4 S s       :     4.705236  s :     4.705236
      pz      :     2.828830  p :     8.403188
      px      :     2.778612
      py      :     2.795746
      dz2     :     0.392993  d :     1.812415
      dxz     :     0.325884
      dyz     :     0.427798
      dx2y2   :     0.390046
      dxy     :     0.275693
      f0      :     0.060264  f :     0.422654
      f+1     :     0.056344
      f-1     :     0.086131
      f+2     :     0.072400
      f-2     :     0.043886
      f+3     :     0.046660
      f-3     :     0.056970
  5 O s       :     3.474933  s :     3.474933
      pz      :     1.563473  p :     4.666183
      px      :     1.615983
      py      :     1.486727
      dz2     :     0.012754  d :     0.092591
      dxz     :     0.014133
      dyz     :     0.025947
      dx2y2   :     0.026117
      dxy     :     0.013639
      f0      :     0.000879  f :     0.006246
      f+1     :     0.000522
      f-1     :     0.000957
      f+2     :     0.001482
      f-2     :     0.000731
      f+3     :     0.000871
      f-3     :     0.000804
  6 O s       :     3.554678  s :     3.554678
      pz      :     1.459749  p :     4.645543
      px      :     1.591446
      py      :     1.594348
      dz2     :     0.036482  d :     0.096197
      dxz     :     0.022498
      dyz     :     0.021130
      dx2y2   :     0.007873
      dxy     :     0.008213
      f0      :     0.001940  f :     0.007487
      f+1     :     0.001681
      f-1     :     0.001541
      f+2     :     0.000736
      f-2     :     0.000814
      f+3     :     0.000385
      f-3     :     0.000390
  7 O s       :     3.550009  s :     3.550009
      pz      :     1.570431  p :     4.649743
      px      :     1.567069
      py      :     1.512243
      dz2     :     0.013360  d :     0.096214
      dxz     :     0.016456
      dyz     :     0.025609
      dx2y2   :     0.017086
      dxy     :     0.023703
      f0      :     0.000973  f :     0.007463
      f+1     :     0.000657
      f-1     :     0.000996
      f+2     :     0.000998
      f-2     :     0.001681
      f+3     :     0.001239
      f-3     :     0.000920


                      *****************************
                      * MAYER POPULATION ANALYSIS *
                      *****************************

  NA   - Mulliken gross atomic population
  ZA   - Total nuclear charge
  QA   - Mulliken gross atomic charge
  VA   - Mayer's total valence
  BVA  - Mayer's bonded valence
  FA   - Mayer's free valence

  ATOM       NA         ZA         QA         VA         BVA        FA
  0 O      8.6193     8.0000    -0.6193     1.7535     1.1593     0.5942
  1 U     89.5477    92.0000     2.4523     4.4711     2.9743     1.4968
  2 O      8.6022     8.0000    -0.6022     1.7661     1.1675     0.5987
  3 O      8.7225     8.0000    -0.7225     1.9328     1.4307     0.5021
  4 S     14.6140    16.0000     1.3860     5.8639     5.3701     0.4938
  5 O      8.7197     8.0000    -0.7197     1.9355     1.4323     0.5032
  6 O      8.5887     8.0000    -0.5887     2.1961     1.7367     0.4594
  7 O      8.5859     8.0000    -0.5859     2.1743     1.7147     0.4596

  Mayer bond orders larger than 0.1
B(  0-O ,  1-U ) :   1.0288 B(  1-U ,  2-O ) :   1.0277 B(  1-U ,  3-O ) :   0.3976 
B(  1-U ,  5-O ) :   0.4085 B(  3-O ,  4-S ) :   0.9841 B(  4-S ,  5-O ) :   0.9751 
B(  4-S ,  6-O ) :   1.6828 B(  4-S ,  7-O ) :   1.6560 


                *******************************************
                * RELAXED MP2 DENSITY POPULATION ANALYSIS *
                *******************************************

------------------------------------------------------------------------------
                           ORCA POPULATION ANALYSIS
------------------------------------------------------------------------------
Input electron density              ... /home/nikolayandreadi_2125/_scratch/MP2/UO2_SO4.pmp2re
BaseName (.gbw .S,...)              ... /home/nikolayandreadi_2125/_scratch/MP2/UO2_SO4

                    ********************************
                    * MULLIKEN POPULATION ANALYSIS *
                    ********************************

-----------------------
MULLIKEN ATOMIC CHARGES
-----------------------
   0 O :   -0.430151
   1 U :    1.853728
   2 O :   -0.411841
   3 O :   -0.591962
   4 S :    1.122791
   5 O :   -0.588337
   6 O :   -0.477574
   7 O :   -0.476655
Sum of atomic charges:   -0.0000000

--------------------------------
MULLIKEN REDUCED ORBITAL CHARGES
--------------------------------
  0 O s       :     4.022656  s :     4.022656
      pz      :     1.444410  p :     4.337908
      px      :     1.466926
      py      :     1.426572
      dz2     :     0.013540  d :     0.064378
      dxz     :     0.010198
      dyz     :     0.013389
      dx2y2   :     0.014037
      dxy     :     0.013213
      f0      :     0.000597  f :     0.005209
      f+1     :     0.000511
      f-1     :     0.000886
      f+2     :     0.000814
      f-2     :     0.000867
      f+3     :     0.000768
      f-3     :     0.000765
  1 U s       :    12.389881  s :    12.389881
      pz      :     9.884951  p :    29.674006
      px      :     9.945976
      py      :     9.843079
      dz2     :     6.404990  d :    31.627524
      dxz     :     6.293198
      dyz     :     6.285646
      dx2y2   :     6.372685
      dxy     :     6.271006
      f0      :     2.297277  f :    16.454861
      f+1     :     2.172491
      f-1     :     2.491203
      f+2     :     2.435511
      f-2     :     2.465513
      f+3     :     2.323703
      f-3     :     2.269164
  2 O s       :     4.022499  s :     4.022499
      pz      :     1.432785  p :     4.319001
      px      :     1.456971
      py      :     1.429245
      dz2     :     0.015706  d :     0.065043
      dxz     :     0.011869
      dyz     :     0.012379
      dx2y2   :     0.012384
      dxy     :     0.012704
      f0      :     0.000725  f :     0.005298
      f+1     :     0.000543
      f-1     :     0.001080
      f+2     :     0.000914
      f-2     :     0.000878
      f+3     :     0.000576
      f-3     :     0.000581
  3 O s       :     3.891440  s :     3.891440
      pz      :     1.646122  p :     4.638321
      px      :     1.324637
      py      :     1.667562
      dz2     :     0.011432  d :     0.058119
      dxz     :     0.011112
      dyz     :     0.009213
      dx2y2   :     0.014295
      dxy     :     0.012067
      f0      :     0.000513  f :     0.004082
      f+1     :     0.000605
      f-1     :     0.000507
      f+2     :     0.000585
      f-2     :     0.000490
      f+3     :     0.000759
      f-3     :     0.000622
  4 S s       :     5.148881  s :     5.148881
      pz      :     2.750166  p :     8.395186
      px      :     2.837819
      py      :     2.807202
[...]
      px      :     1.594421
      py      :     1.578644
      dz2     :     0.033139  d :     0.096817
      dxz     :     0.018584
      dyz     :     0.027327
      dx2y2   :     0.008830
      dxy     :     0.008937
      f0      :     0.001715  f :     0.007630
      f+1     :     0.001246
      f-1     :     0.002049
      f+2     :     0.000874
      f-2     :     0.000913
      f+3     :     0.000413
      f-3     :     0.000420
  7 O s       :     3.539562  s :     3.539562
      pz      :     1.592002  p :     4.652280
      px      :     1.548705
      py      :     1.511573
      dz2     :     0.014268  d :     0.096827
      dxz     :     0.014587
      dyz     :     0.019654
      dx2y2   :     0.018383
      dxy     :     0.029936
      f0      :     0.000948  f :     0.007632
      f+1     :     0.000691
      f-1     :     0.000924
      f+2     :     0.000766
      f-2     :     0.001497
      f+3     :     0.001612
      f-3     :     0.001193


                      *****************************
                      * MAYER POPULATION ANALYSIS *
                      *****************************

  NA   - Mulliken gross atomic population
  ZA   - Total nuclear charge
  QA   - Mulliken gross atomic charge
  VA   - Mayer's total valence
  BVA  - Mayer's bonded valence
  FA   - Mayer's free valence

  ATOM       NA         ZA         QA         VA         BVA        FA
  0 O      8.5878     8.0000    -0.5878     1.6707     1.0897     0.5810
  1 U     89.5910    92.0000     2.4090     4.3298     2.8514     1.4784
  2 O      8.5880     8.0000    -0.5880     1.6709     1.0899     0.5810
  3 O      8.7342     8.0000    -0.7342     1.9340     1.4382     0.4958
  4 S     14.5803    16.0000     1.4197     5.9134     5.4347     0.4787
  5 O      8.7118     8.0000    -0.7118     1.9636     1.4743     0.4893
  6 O      8.6035     8.0000    -0.6035     2.1840     1.7333     0.4507
  7 O      8.6034     8.0000    -0.6034     2.1843     1.7337     0.4507

  Mayer bond orders larger than 0.1
B(  0-O ,  1-U ) :   0.9563 B(  1-U ,  2-O ) :   0.9565 B(  1-U ,  3-O ) :   0.4075 
B(  1-U ,  5-O ) :   0.4146 B(  3-O ,  4-S ) :   0.9837 B(  4-S ,  5-O ) :   1.0174 
B(  4-S ,  6-O ) :   1.6800 B(  4-S ,  7-O ) :   1.6804 


                *******************************************
                * RELAXED MP2 DENSITY POPULATION ANALYSIS *
                *******************************************

------------------------------------------------------------------------------
                           ORCA POPULATION ANALYSIS
------------------------------------------------------------------------------
Input electron density              ... /home/nikolayandreadi_2125/_scratch/MP2/UO2_SO4.pmp2re
BaseName (.gbw .S,...)              ... /home/nikolayandreadi_2125/_scratch/MP2/UO2_SO4

                    ********************************
                    * MULLIKEN POPULATION ANALYSIS *
                    ********************************

-----------------------
MULLIKEN ATOMIC CHARGES
-----------------------
   0 O :   -0.396983
   1 U :    1.813377
   2 O :   -0.397181
   3 O :   -0.599544
   4 S :    1.150335
   5 O :   -0.584182
   6 O :   -0.492954
   7 O :   -0.492868
Sum of atomic charges:   -0.0000000

--------------------------------
MULLIKEN REDUCED ORBITAL CHARGES
--------------------------------
  0 O s       :     4.005920  s :     4.005920
      pz      :     1.423514  p :     4.318213
      px      :     1.469814
      py      :     1.424886
      dz2     :     0.015514  d :     0.067203
      dxz     :     0.011399
      dyz     :     0.013539
      dx2y2   :     0.012349
      dxy     :     0.014401
      f0      :     0.000669  f :     0.005647
      f+1     :     0.000465
      f-1     :     0.001128
      f+2     :     0.000993
      f-2     :     0.000923
      f+3     :     0.000749
      f-3     :     0.000721
  1 U s       :    12.448845  s :    12.448845
      pz      :     9.858063  p :    29.689382
      px      :     9.948373
      py      :     9.882945
      dz2     :     6.411720  d :    31.590533
      dxz     :     6.326266
      dyz     :     6.259769
      dx2y2   :     6.322039
      dxy     :     6.270738
      f0      :     2.372208  f :    16.457863
      f+1     :     2.210450
      f-1     :     2.575166
      f+2     :     2.442897
      f-2     :     2.400794
      f+3     :     2.249869
      f-3     :     2.206479
  2 O s       :     4.005941  s :     4.005941
      pz      :     1.415471  p :     4.318403
      px      :     1.472972
      py      :     1.429959
      dz2     :     0.017288  d :     0.067192
      dxz     :     0.014804
      dyz     :     0.014237
      dx2y2   :     0.010580
      dxy     :     0.010283
      f0      :     0.001056  f :     0.005645
      f+1     :     0.000801
      f-1     :     0.001162
      f+2     :     0.000874
      f-2     :     0.000854
      f+3     :     0.000447
      f-3     :     0.000452
  3 O s       :     3.892175  s :     3.892175
      pz      :     1.652315  p :     4.643234
      px      :     1.352528
      py      :     1.638391
      dz2     :     0.011662  d :     0.059951
      dxz     :     0.011111
      dyz     :     0.009576
      dx2y2   :     0.014274
      dxy     :     0.013327
      f0      :     0.000532  f :     0.004185
      f+1     :     0.000622
      f-1     :     0.000514
      f+2     :     0.000580
      f-2     :     0.000536
      f+3     :     0.000733
      f-3     :     0.000666
  4 S s       :     5.101511  s :     5.101511
      pz      :     2.759118  p :     8.364169
      px      :     2.825296
      py      :     2.779755
      dz2     :     0.265182  d :     1.235480
      dxz     :     0.233961
      dyz     :     0.268770
      dx2y2   :     0.251640
      dxy     :     0.215927
      f0      :     0.023400  f :     0.148505
      f+1     :     0.020534
      f-1     :     0.024048
      f+2     :     0.024100
      f-2     :     0.019389
      f+3     :     0.015610
      f-3     :     0.021425
  5 O s       :     3.890929  s :     3.890929
      pz      :     1.532794  p :     4.628323
      px      :     1.576693
      py      :     1.518836
      dz2     :     0.011107  d :     0.060667
      dxz     :     0.010877
      dyz     :     0.013728
      dx2y2   :     0.013483
      dxy     :     0.011471
      f0      :     0.000599  f :     0.004263
      f+1     :     0.000470
      f-1     :     0.000810
      f+2     :     0.000736
      f-2     :     0.000618
      f+3     :     0.000549
      f-3     :     0.000481
  6 O s       :     3.893195  s :     3.893195
      pz      :     1.349474  p :     4.528695
      px      :     1.609103
      py      :     1.570118
      dz2     :     0.018352  d :     0.065907
      dxz     :     0.015524
      dyz     :     0.015909
      dx2y2   :     0.008091
      dxy     :     0.008032
      f0      :     0.001116  f :     0.005156
      f+1     :     0.000896
      f-1     :     0.001016
      f+2     :     0.000674
      f-2     :     0.000677
      f+3     :     0.000388
      f-3     :     0.000389
  7 O s       :     3.893224  s :     3.893224
      pz      :     1.591245  p :     4.528571
      px      :     1.511395
      py      :     1.425930
      dz2     :     0.010949  d :     0.065916
      dxz     :     0.010904
      dyz     :     0.012896
      dx2y2   :     0.015816
      dxy     :     0.015351
      f0      :     0.000586  f :     0.005157
      f+1     :     0.000578
      f-1     :     0.000727
      f+2     :     0.000626
      f-2     :     0.000838
      f+3     :     0.000869
      f-3     :     0.000934


                     *******************************
                     * LOEWDIN POPULATION ANALYSIS *
                     *******************************

----------------------
LOEWDIN ATOMIC CHARGES
----------------------
   0 O :   -0.017946
   1 U :    0.320363
   2 O :   -0.018078
   3 O :   -0.152829
   4 S :    0.477882
   5 O :   -0.138777
   6 O :   -0.235376
   7 O :   -0.235238

-------------------------------
LOEWDIN REDUCED ORBITAL CHARGES
-------------------------------
  0 O s       :     3.551284  s :     3.551284
      pz      :     1.424546  p :     4.308450
      px      :     1.398668
      py      :     1.485235
      dz2     :     0.021662  d :     0.146152
      dxz     :     0.016606
      dyz     :     0.053103
      dx2y2   :     0.031371
      dxy     :     0.023409
      f0      :     0.001470  f :     0.012061
      f+1     :     0.000588
      f-1     :     0.002318
      f+2     :     0.002905
      f-2     :     0.001931
      f+3     :     0.001427
      f-3     :     0.001422
  1 U s       :    12.025545  s :    12.025545
      pz      :     9.870674  p :    29.727811
      px      :     9.966706
      py      :     9.890432
      dz2     :     6.577216  d :    32.528137
      dxz     :     6.425183
      dyz     :     6.649786
      dx2y2   :     6.512423
      dxy     :     6.363530
      f0      :     2.489758  f :    17.398144
      f+1     :     2.303114
      f-1     :     2.788041
      f+2     :     2.633644
      f-2     :     2.533484
      f+3     :     2.352812
      f-3     :     2.297291
  2 O s       :     3.551322  s :     3.551322
      pz      :     1.491324  p :     4.308591
      px      :     1.405826
      py      :     1.411440
      dz2     :     0.042362  d :     0.146110
      dxz     :     0.026029
      dyz     :     0.048451
      dx2y2   :     0.014963
      dxy     :     0.014305
      f0      :     0.002032  f :     0.012056
      f+1     :     0.001626
      f-1     :     0.003753
      f+2     :     0.001771
      f-2     :     0.001730
      f+3     :     0.000578
      f-3     :     0.000565
  3 O s       :     3.469639  s :     3.469639
      pz      :     1.588464  p :     4.576355
      px      :     1.398364
      py      :     1.589527
      dz2     :     0.018039  d :     0.100130
      dxz     :     0.016852
      dyz     :     0.017314
      dx2y2   :     0.025877
      dxy     :     0.022049
      f0      :     0.000745  f :     0.006705
      f+1     :     0.001062
      f-1     :     0.000748
      f+2     :     0.000854
      f-2     :     0.000810
      f+3     :     0.001323
      f-3     :     0.001164
  4 S s       :     4.692853  s :     4.692853
      pz      :     2.830747  p :     8.458033
      px      :     2.802683
      py      :     2.824603
      dz2     :     0.411684  d :     1.939027
      dxz     :     0.328911
      dyz     :     0.460940
      dx2y2   :     0.394328
      dxy     :     0.343164
      f0      :     0.066455  f :     0.432205
      f+1     :     0.058500
      f-1     :     0.073733
      f+2     :     0.067596
      f-2     :     0.055048
      f+3     :     0.049983
      f-3     :     0.060889
  5 O s       :     3.462451  s :     3.462451
      pz      :     1.508246  p :     4.569539
      px      :     1.551983
      py      :     1.509309
      dz2     :     0.017065  d :     0.100002
      dxz     :     0.015095
      dyz     :     0.028172
      dx2y2   :     0.025160
      dxy     :     0.014509
      f0      :     0.000900  f :     0.006786
      f+1     :     0.000650
      f-1     :     0.001357
      f+2     :     0.001389
      f-2     :     0.000831
      f+3     :     0.000949
      f-3     :     0.000710
  6 O s       :     3.543905  s :     3.543905
      pz      :     1.477763  p :     4.585817
      px      :     1.558433
      py      :     1.549622
      dz2     :     0.032727  d :     0.097854
      dxz     :     0.019532
      dyz     :     0.027255
      dx2y2   :     0.009165
      dxy     :     0.009174
      f0      :     0.001773  f :     0.007800
      f+1     :     0.001311
      f-1     :     0.002011
      f+2     :     0.000916
      f-2     :     0.000945
      f+3     :     0.000419
      f-3     :     0.000425
  7 O s       :     3.543908  s :     3.543908
      pz      :     1.563740  p :     4.585665
      px      :     1.523842
      py      :     1.498084
      dz2     :     0.014593  d :     0.097864
      dxz     :     0.014796
      dyz     :     0.019898
      dx2y2   :     0.019401
      dxy     :     0.029177
      f0      :     0.000940  f :     0.007801
      f+1     :     0.000727
      f-1     :     0.000971
      f+2     :     0.000802
      f-2     :     0.001494
      f+3     :     0.001594
      f-3     :     0.001274


                      *****************************
                      * MAYER POPULATION ANALYSIS *
                      *****************************

  NA   - Mulliken gross atomic population
  ZA   - Total nuclear charge
  QA   - Mulliken gross atomic charge
  VA   - Mayer's total valence
  BVA  - Mayer's bonded valence
  FA   - Mayer's free valence

  ATOM       NA         ZA         QA         VA         BVA        FA
  0 O      8.3970     8.0000    -0.3970     1.8052     1.2877     0.5175
  1 U     90.1866    92.0000     1.8134     4.8702     3.6040     1.2662
  2 O      8.3972     8.0000    -0.3972     1.8054     1.2879     0.5175
  3 O      8.5995     8.0000    -0.5995     2.1153     1.6496     0.4656
  4 S     14.8497    16.0000     1.1503     6.1811     5.7359     0.4452
  5 O      8.5842     8.0000    -0.5842     2.1382     1.6772     0.4610
  6 O      8.4930     8.0000    -0.4930     2.3303     1.8962     0.4342
  7 O      8.4929     8.0000    -0.4929     2.3307     1.8966     0.4341

  Mayer bond orders larger than 0.1
B(  0-O ,  1-U ) :   1.1540 B(  1-U ,  2-O ) :   1.1542 B(  1-U ,  3-O ) :   0.5610 
B(  1-U ,  5-O ) :   0.5592 B(  3-O ,  4-S ) :   1.0068 B(  4-S ,  5-O ) :   1.0362 
B(  4-S ,  6-O ) :   1.7942 B(  4-S ,  7-O ) :   1.7947 


----------------------------------
MP2 DERIVATIVE INTEGRAL GENERATION
----------------------------------


Input Wavefunction Amplitudes       ... /home/nikolayandreadi_2125/_scratch/MP2/UO2_SO4.mp2tsaa.tmp.proc41
Input Correlated Electron Density   ... /home/nikolayandreadi_2125/_scratch/MP2/UO2_SO4.pmp2re
Input Energy Weighted Density       ... /home/nikolayandreadi_2125/_scratch/MP2/UO2_SO4.wmp2.tmp
Input SCF Electron Density          ... /home/nikolayandreadi_2125/_scratch/MP2/UO2_SO4.scfp.tmp

One-Electron Terms    ...
                        ... One-Electron Terms done
Prescreening matrices              ... done

Batch handling in the gradient evaluation:
Memory available                      ... 13500.0 MB
Memory per occupied orbital in Q2     ...   37.9 MB
Memory per occupied orbital in Q3     ...    0.1 MB
Total memory requirement per |i>      ...   38.0 MB
Max. Number of orbitals possible      ...    354
Number of orbitals treated per batch  ...     33
Number of batches to be done          ...      1
Batch   0: i=   45 ...    77

---------------------------------------
MP2 TOTAL ENERGY:   -28799.958035768 Eh
---------------------------------------

-----------------------------------
NORM OF THE MP2 GRADIENT:  0.000473
-----------------------------------

-------------------------   --------------------
FINAL SINGLE POINT ENERGY    -28799.958035768370
-------------------------   --------------------

                                *** OPTIMIZATION RUN DONE ***

                            ***************************************
                            *     ORCA property calculations      *
                            ***************************************

                                    ---------------------
                                    Active property flags
                                    ---------------------
   (+) Dipole Moment


------------------------------------------------------------------------------
                       ORCA ELECTRIC PROPERTIES CALCULATION
------------------------------------------------------------------------------

Dipole Moment Calculation                       ... on
Quadrupole Moment Calculation                   ... off
Polarizability Calculation                      ... off
GBWName                                         ... /home/nikolayandreadi_2125/_scratch/MP2/UO2_SO4.gbw
Electron density file                           ... /home/nikolayandreadi_2125/_scratch/MP2/UO2_SO4.scfp.tmp
The origin for moment calculation is the CENTER OF MASS  = ( 0.862890,  2.608105 -0.340118)

-------------
DIPOLE MOMENT
-------------
                                X             Y             Z
Electronic contribution:     31.81530     -13.26016     -21.50318
Nuclear contribution   :    -28.04579      11.90693      19.15474
                        -----------------------------------------
Total Dipole Moment    :      3.76951      -1.35323      -2.34844
                        -----------------------------------------
Magnitude (a.u.)       :      4.64280
Magnitude (Debye)      :     11.80106


                         *** MP2 UNRELAXED DENSITY ***

------------------------------------------------------------------------------
                       ORCA ELECTRIC PROPERTIES CALCULATION
------------------------------------------------------------------------------

Dipole Moment Calculation                       ... on
Quadrupole Moment Calculation                   ... off
Polarizability Calculation                      ... off
GBWName                                         ... /home/nikolayandreadi_2125/_scratch/MP2/UO2_SO4.gbw
Electron density file                           ... /home/nikolayandreadi_2125/_scratch/MP2/UO2_SO4.pmp2ur
The origin for moment calculation is the CENTER OF MASS  = ( 0.862890,  2.608105 -0.340118)

-------------
DIPOLE MOMENT
-------------
                                X             Y             Z
Electronic contribution:     31.70637     -13.25561     -21.46677
Nuclear contribution   :    -28.04579      11.90693      19.15474
                        -----------------------------------------
Total Dipole Moment    :      3.66058      -1.34867      -2.31203
                        -----------------------------------------
Magnitude (a.u.)       :      4.53478
Magnitude (Debye)      :     11.52649


                           *** MP2 RELAXED DENSITY ***

------------------------------------------------------------------------------
                       ORCA ELECTRIC PROPERTIES CALCULATION
------------------------------------------------------------------------------

Dipole Moment Calculation                       ... on
Quadrupole Moment Calculation                   ... off
Polarizability Calculation                      ... off
GBWName                                         ... /home/nikolayandreadi_2125/_scratch/MP2/UO2_SO4.gbw
Electron density file                           ... /home/nikolayandreadi_2125/_scratch/MP2/UO2_SO4.pmp2re
The origin for moment calculation is the CENTER OF MASS  = ( 0.862890,  2.608105 -0.340118)

-------------
DIPOLE MOMENT
-------------
                                X             Y             Z
Electronic contribution:     31.28327     -13.14361     -21.23950
Nuclear contribution   :    -28.04579      11.90693      19.15474
                        -----------------------------------------
Total Dipole Moment    :      3.23748      -1.23668      -2.08476
                        -----------------------------------------
Magnitude (a.u.)       :      4.04436
Magnitude (Debye)      :     10.27994


Timings for individual modules:

Sum of individual times         ...     5745.799 sec (=  95.763 min)
GTO integral calculation        ...       27.656 sec (=   0.461 min)   0.5 %
Relativistic integrals          ...       10.903 sec (=   0.182 min)   0.2 %
SCF iterations                  ...      861.343 sec (=  14.356 min)  15.0 %
MP2 module                      ...     4845.340 sec (=  80.756 min)  84.3 %
Geometry relaxation             ...        0.557 sec (=   0.009 min)   0.0 %
                             ****ORCA TERMINATED NORMALLY****
TOTAL RUN TIME: 0 days 1 hours 35 minutes 55 seconds 177 msec
