
                                 *****************
                                 * O   R   C   A *
                                 *****************

           --- An Ab Initio, DFT and Semiempirical electronic structure package ---

                  #######################################################
                  #                        -***-                        #
                  #  Department of molecular theory and spectroscopy    #
                  #              Directorship: Frank Neese              #
                  # Max Planck Institute for Chemical Energy Conversion #
                  #                  D-45470 Muelheim/Ruhr              #
                  #                       Germany                       #
                  #                                                     #
                  #                  All rights reserved                #
                  #                        -***-                        #
                  #######################################################


                         Program Version 4.0.1.2 - RELEASE -


 With contributions from (in alphabetic order):
   Daniel Aravena         : Magnetic Properties
   Michael Atanasov       : Ab Initio Ligand Field Theory
   Ute Becker             : Parallelization
   Martin Brehm           : Molecular dynamics
   Dmytro Bykov           : SCF Hessian
   Vijay G. Chilkuri      : MRCI spin determinant printing
   Dipayan Datta          : RHF DLPNO-CCSD density
   Achintya Kumar Dutta   : EOM-CC, STEOM-CC
   Dmitry Ganyushin       : Spin-Orbit,Spin-Spin,Magnetic field MRCI
   Yang Guo               : DLPNO-NEVPT2, CIM, IAO-localization
   Andreas Hansen         : Spin unrestricted coupled pair/coupled cluster methods
   Lee Huntington         : MR-EOM, pCC
   Robert Izsak           : Overlap fitted RIJCOSX, COSX-SCS-MP3, EOM
   Christian Kollmar      : KDIIS, OOCD, Brueckner-CCSD(T), CCSD density
   Simone Kossmann        : Meta GGA functionals, TD-DFT gradient, OOMP2, MP2 Hessian
   Martin Krupicka        : AUTO-CI
   Dagmar Lenk            : GEPOL surface
   Dimitrios Liakos       : Extrapolation schemes; parallel MDCI
   Dimitrios Manganas     : ROCIS; embedding schemes
   Dimitrios Pantazis     : SARC Basis sets
   Taras Petrenko         : DFT Hessian,TD-DFT gradient, ASA, ECA, R-Raman, ABS, FL, XAS/XES, NRVS
   Peter Pinski           : DLPNO-MP2
   Christoph Reimann      : Effective Core Potentials
   Marius Retegan         : Local ZFS, SOC
   Christoph Riplinger    : Optimizer, TS searches, QM/MM, DLPNO-CCSD(T), (RO)-DLPNO pert. Triples
   Tobias Risthaus        : Range-separated hybrids, TD-DFT gradient, RPA, STAB
   Michael Roemelt        : Restricted open shell CIS
   Masaaki Saitow         : Open-shell DLPNO
   Barbara Sandhoefer     : DKH picture change effects
   Kantharuban Sivalingam : CASSCF convergence, NEVPT2, FIC-MRCI
   Georgi Stoychev        : AutoAux
   Boris Wezisla          : Elementary symmetry handling
   Frank Wennmohs         : Technical directorship


 We gratefully acknowledge several colleagues who have allowed us to
 interface, adapt or use parts of their codes:
   Stefan Grimme, W. Hujo, H. Kruse,             : VdW corrections, initial TS optimization,
                  C. Bannwarth                     DFT functionals, gCP, sTDA/sTD-DF
   Ed Valeev                                     : LibInt (2-el integral package), F12 methods
   Garnet Chan, S. Sharma, J. Yang, R. Olivares  : DMRG
   Ulf Ekstrom                                   : XCFun DFT Library
   Mihaly Kallay                                 : mrcc  (arbitrary order and MRCC methods)
   Andreas Klamt, Michael Diedenhofen            : otool_cosmo (COSMO solvation model)
   Jiri Pittner, Ondrej Demel                    : Mk-CCSD
   Frank Weinhold                                : gennbo (NPA and NBO analysis)
   Christopher J. Cramer and Donald G. Truhlar   : smd solvation model


 Your calculation uses the libint2 library for the computation of 2-el integrals
 For citations please refer to: http://libint.valeyev.net

 This ORCA versions uses:
   CBLAS   interface :  Fast vector & matrix operations
   LAPACKE interface :  Fast linear algebra routines
   SCALAPACK package :  Parallel linear algebra routines


Your calculation utilizes the basis: DKH-def2-TZVP
   Exponents from def2-TZVP [F. Weigend and R. Ahlrichs, Phys. Chem. Chem. Phys. 7, 3297 (2005)],
   recontracted for DKH2 by D. A. Pantazis.

Your calculation utilizes the auxiliary basis: SARC/J 
   decontracted def2/J up to Kr:
   F. Weigend, Phys. Chem. Chem. Phys. 8, 1057 (2006)
   and SARC auxiliary basis sets beyond Kr:
   D. A. Pantazis and F. Neese, J. Chem. Theory Comput. 5, 2229 (2009).
   D. A. Pantazis, X. Y. Chen, C. R. Landis and F. Neese, J. Chem. Theory Comput. 4, 908 (2008).
   D. A. Pantazis and F. Neese, Theor. Chem. Acc. 131, 1292 (2012).
   D. A. Pantazis and F. Neese, J. Chem. Theory Comput. 7, 677 (2011).

================================================================================
                                        WARNINGS
                       Please study these warnings very carefully!
================================================================================

Warning: TCutStore was < 0. Adjusted to Thresh (uncritical)

WARNING: In scalar relativistic gradient/hessian runs we need the one-center approximation
  ===> : %rel OneCenter is turned on

WARNING: The frozen-core approximation for MP2-gradient calculations is turned on by default.

WARNING: Geometry Optimization
  ===> : Switching off AutoStart
         For restart on a previous wavefunction, please use MOREAD

WARNING: Post HF methods need fully converged wavefunctions
  ===> : Setting SCFConvForced true
         You can overwrite this default with %scf ConvForced false 


INFO   : the flag for use of LIBINT has been found!

================================================================================
                                       INPUT FILE
================================================================================
NAME = /home/nikolayandreadi_2125/_scratch/MP2/UO2_C2O4.inp
|  1> !Opt MP2 DKH-def2-TZVP DKH SARC/J SlowConv
|  2> 
|  3> %pal
|  4> nproc 20
|  5> end
|  6> 
|  7> %maxcore 31500
|  8> 
|  9> %basis
| 10> newgto U "SARC-DKH-TZVP" end
| 11> end
| 12> 
| 13> %scf
| 14> MaxIter 5000
| 15> Guess HCore
| 16> end
| 17> 
| 18> %method
| 19> Z_MaxIter 5000
| 20> end
| 21> 
| 22> * xyz 0 1
| 23>   O     -1.822537   -1.108799    0.711169
| 24>   C     -0.640765   -1.277496    0.108176
| 25>   O     -0.136802   -2.314117   -0.182182
| 26>   C      0.008312    0.122148   -0.142177
| 27>   O      1.036689    0.289091   -0.715018
| 28>   O     -0.759984    1.069093    0.403960
| 29>   U     -2.534498    0.714794    1.541751
| 30>   O     -1.655705    0.557372    3.051892
| 31>   O     -3.729570    1.014945    0.293009
| 32> **                         ****END OF INPUT****
================================================================================

                       *****************************
                       * Geometry Optimization Run *
                       *****************************

Geometry optimization settings:
Update method            Update   .... BFGS
Choice of coordinates    CoordSys .... Redundant Internals
Initial Hessian          InHess   .... Almoef's Model

Convergence Tolerances:
Energy Change            TolE     ....  5.0000e-06 Eh
Max. Gradient            TolMAXG  ....  3.0000e-04 Eh/bohr
RMS Gradient             TolRMSG  ....  1.0000e-04 Eh/bohr
Max. Displacement        TolMAXD  ....  4.0000e-03 bohr
RMS Displacement         TolRMSD  ....  2.0000e-03 bohr

------------------------------------------------------------------------------
                        ORCA OPTIMIZATION COORDINATE SETUP
------------------------------------------------------------------------------

The optimization will be done in new redundant internal coordinates
Making redundant internal coordinates   ...  (new redundants) done
Evaluating the initial hessian          ...  (Almloef) done
Evaluating the coordinates              ...  done
Calculating the B-matrix                .... done
Calculating the G-matrix                .... done
Diagonalizing the G-matrix              .... done
The first mode is                       ....   16
The number of degrees of freedom        ....   21

    -----------------------------------------------------------------
                    Redundant Internal Coordinates


    -----------------------------------------------------------------
         Definition                    Initial Value    Approx d2E/dq
    -----------------------------------------------------------------
      1. B(C   1,O   0)                  1.3374         0.678879   
      2. B(O   2,C   1)                  1.1886         1.172545   
      3. B(C   3,C   1)                  1.5630         0.330919   
      4. B(O   4,C   3)                  1.1889         1.171266   
      5. B(O   5,C   3)                  1.3361         0.682053   
      6. B(U   6,O   5)                  2.1375         0.120711   
      7. B(U   6,O   0)                  2.1266         0.125672   
      8. B(O   7,U   6)                  1.7543         0.493338   
      9. B(O   8,U   6)                  1.7543         0.493307   
     10. A(C   1,O   0,U   6)          125.4577         0.351307   
     11. A(O   0,C   1,O   2)          126.4974         0.489202   
     12. A(O   2,C   1,C   3)          124.4551         0.431953   
     13. A(O   0,C   1,C   3)          109.0391         0.392051   
     14. A(O   4,C   3,O   5)          126.4972         0.489526   
     15. A(C   1,C   3,O   5)          109.2923         0.392372   
     16. A(C   1,C   3,O   4)          124.2015         0.431868   
     17. A(C   3,O   5,U   6)          125.2723         0.349201   
     18. A(O   7,U   6,O   8)          165.7749         0.450326   
     19. A(O   5,U   6,O   8)           99.1069         0.351734   
     20. A(O   0,U   6,O   8)           95.5532         0.354140   
     21. A(O   5,U   6,O   7)           93.2803         0.351738   
     22. A(O   0,U   6,O   7)           95.2530         0.354144   
     23. A(O   0,U   6,O   5)           69.8974         0.281797   
     24. D(O   2,C   1,O   0,U   6)    167.8696         0.034317   
     25. D(C   3,C   1,O   0,U   6)    -11.1113         0.034317   
     26. D(O   5,C   3,C   1,O   0)      4.4146         0.007792   
     27. D(O   4,C   3,C   1,O   2)      4.3814         0.007792   
     28. D(O   5,C   3,C   1,O   2)   -174.5919         0.007792   
     29. D(O   4,C   3,C   1,O   0)   -176.6121         0.007792   
     30. D(U   6,O   5,C   3,C   1)      3.3862         0.034668   
     31. D(U   6,O   5,C   3,O   4)   -175.5576         0.034668   
     32. D(O   8,U   6,O   5,C   3)    -99.3249         0.001701   
     33. D(O   7,U   6,O   5,C   3)     87.6917         0.001701   
     34. D(O   0,U   6,O   5,C   3)     -6.7059         0.001701   
     35. D(O   8,U   6,O   0,C   1)    107.6978         0.001718   
     36. D(O   7,U   6,O   0,C   1)    -81.5669         0.001718   
     37. D(O   5,U   6,O   0,C   1)     10.0112         0.001718   
    -----------------------------------------------------------------

Number of atoms                         .... 9
Number of degrees of freedom            .... 37

         *************************************************************
         *                GEOMETRY OPTIMIZATION CYCLE   1            *
         *************************************************************
---------------------------------
CARTESIAN COORDINATES (ANGSTROEM)
---------------------------------
  O     -1.822537   -1.108799    0.711169
  C     -0.640765   -1.277496    0.108176
  O     -0.136802   -2.314117   -0.182182
  C      0.008312    0.122148   -0.142177
  O      1.036689    0.289091   -0.715018
  O     -0.759984    1.069093    0.403960
  U     -2.534498    0.714794    1.541751
  O     -1.655705    0.557372    3.051892
  O     -3.729570    1.014945    0.293009

----------------------------
CARTESIAN COORDINATES (A.U.)
----------------------------
  NO LB      ZA    FRAG     MASS         X           Y           Z
   0 O     8.0000    0    15.999   -3.444096   -2.095326    1.343915
   1 C     6.0000    0    12.011   -1.210870   -2.414118    0.204423
   2 O     8.0000    0    15.999   -0.258518   -4.373047   -0.344274
   3 C     6.0000    0    12.011    0.015707    0.230826   -0.268676
   4 O     8.0000    0    15.999    1.959058    0.546303   -1.351188
   5 O     8.0000    0    15.999   -1.436162    2.020293    0.763374
   6 U    92.0000    0   238.029   -4.789507    1.350765    2.913487
   7 O     8.0000    0    15.999   -3.128829    1.053280    5.767240
   8 O     8.0000    0    15.999   -7.047866    1.917968    0.553707

--------------------------------
INTERNAL COORDINATES (ANGSTROEM)
--------------------------------
 O      0   0   0     0.000000000000     0.00000000     0.00000000
 C      1   0   0     1.337402069627     0.00000000     0.00000000
 O      2   1   0     1.188641901993   126.49744204     0.00000000
 C      2   1   3     1.563003807825   109.03914722   181.01906636
 O      4   2   1     1.188939035720   124.20150679   183.38794383
 O      4   2   1     1.336132178869   109.29232724     4.41457773
 U      1   2   3     2.126557394921   125.45769655   167.86962479
 O      7   1   2     1.754304609472    95.25304294   278.43314301
 O      7   1   2     1.754321604082    95.55318401   107.69784867

---------------------------
INTERNAL COORDINATES (A.U.)
---------------------------
 O      0   0   0     0.000000000000     0.00000000     0.00000000
 C      1   0   0     2.527323642534     0.00000000     0.00000000
 O      2   1   0     2.246207666070   126.49744204     0.00000000
 C      2   1   3     2.953649143064   109.03914722   181.01906636
 O      4   2   1     2.246769167439   124.20150679   183.38794383
 O      4   2   1     2.524923896782   109.29232724     4.41457773
 U      1   2   3     4.018611084466   125.45769655   167.86962479
 O      7   1   2     3.315155267377    95.25304294   278.43314301
 O      7   1   2     3.315187382536    95.55318401   107.69784867

---------------------
BASIS SET INFORMATION
---------------------
There are 3 groups of distinct atoms

 Group   1 Type O   : 11s6p2d1f contracted to 6s3p2d1f pattern {611111/411/11/1}
 Group   2 Type C   : 11s6p2d1f contracted to 6s3p2d1f pattern {611111/411/11/1}
 Group   3 Type U   : 29s20p16d12f contracted to 21s13p10d7f pattern {911111111111111111111/8111111111111/7111111111/6111111}

Atom   0O    basis set group =>   1
Atom   1C    basis set group =>   2
Atom   2O    basis set group =>   1
Atom   3C    basis set group =>   2
Atom   4O    basis set group =>   1
Atom   5O    basis set group =>   1
Atom   6U    basis set group =>   3
Atom   7O    basis set group =>   1
Atom   8O    basis set group =>   1

INFORMATION: There is an auxiliary basis set but the global RI flag is NOT set

-------------------------------
AUXILIARY BASIS SET INFORMATION
-------------------------------
There are 3 groups of distinct atoms

 Group   1 Type O   : 12s5p4d2f1g contracted to 12s5p4d2f1g pattern {111111111111/11111/1111/11/1}
 Group   2 Type C   : 12s5p4d2f1g contracted to 12s5p4d2f1g pattern {111111111111/11111/1111/11/1}
 Group   3 Type U   : 33s10p8d6f4g2h1i contracted to 33s10p8d6f4g2h1i pattern {111111111111111111111111111111111/1111111111/11111111/111111/1111/11/1}

Atom   0O    basis set group =>   1
Atom   1C    basis set group =>   2
Atom   2O    basis set group =>   1
Atom   3C    basis set group =>   2
Atom   4O    basis set group =>   1
Atom   5O    basis set group =>   1
Atom   6U    basis set group =>   3
Atom   7O    basis set group =>   1
Atom   8O    basis set group =>   1


           ************************************************************
           *        Program running with 20 parallel MPI-processes    *
           *              working on a common directory               *
           ************************************************************
------------------------------------------------------------------------------
                           ORCA GTO INTEGRAL CALCULATION
------------------------------------------------------------------------------

                         BASIS SET STATISTICS AND STARTUP INFO

 # of primitive gaussian shells          ...  237
 # of primitive gaussian functions       ...  621
 # of contracted shells                  ...  147
 # of contracted basis functions         ...  415
 Highest angular momentum                ...    3
 Maximum contraction depth               ...    9
 Integral package used                   ... LIBINT
 Integral threshhold            Thresh   ...  2.500e-11
 Primitive cut-off              TCut     ...  2.500e-12


------------------------------ INTEGRAL EVALUATION ----------------------------


 * One electron integrals 
 Pre-screening matrix                    ... done
 Shell pair data                         ... done (   0.002 sec)

------------------------------------------------------------------------------
                          ORCA RELATIVISTIC HAMILTONIAN
------------------------------------------------------------------------------

Relativistic Method            ... DKH
Order of DKH treatment         ...   2
Treatment of potential         ... V(e,N)
Eps parameter for DKH          ...   0.00000000010000
Nucleus model                  ... Point Nucleus
Speed of light used            ... 137.03598950000000


            ************************************************
            *        DOUGLAS-KROLL-HESS HAMILTONIAN        *
            *   Programmed by FN according to literature   *
            *        procedures. Special thanks to         *
            *       B.A. Hess, M. Reiher and A. Wolf       *
            *     University Erlangen-Nuernberg/Bonn       *
            ************************************************

Uncontracting the basis (first version)        ... done
Number of contracted basis functions           ...  415
Number of uncontracted basis functions         ...  621
Initializing the DKH file                      ... done
One center approximation for DKH is active
Finding unique atoms                      ... 3 atom types
 ATOMIC NUMBER   8
          ... doing integrals          ... Computing the DKH transformation
          ... Transforming V and pVp to p**2 space
          ... First transformation of V and pVp
          ... Second transformation of Veff
          ... Adding kinetic energy
          ... Back transformation of Veff to r-space
          ... Recontracting the H-matrix
          ... Computing the DKH correction to the H-matrix
          ... adding submatrics to 6 actual atoms
 ATOMIC NUMBER   6
          ... doing integrals          ... Computing the DKH transformation
          ... Transforming V and pVp to p**2 space
          ... First transformation of V and pVp
          ... Second transformation of Veff
          ... Adding kinetic energy
          ... Back transformation of Veff to r-space
          ... Recontracting the H-matrix
          ... Computing the DKH correction to the H-matrix
          ... adding submatrics to 2 actual atoms
 ATOMIC NUMBER  92
          ... doing integrals          ... Computing the DKH transformation
          ... Transforming V and pVp to p**2 space
          ... First transformation of V and pVp
          ... Second transformation of Veff
          ... Adding kinetic energy
          ... Back transformation of Veff to r-space
          ... Recontracting the H-matrix
          ... Computing the DKH correction to the H-matrix
          ... adding submatrics to 1 actual atoms
Storing DKH matrices                           ... done
Getting S**(-1/2)                              ... done
Reading the original H-matrix                  ... done
Adding DKH correction to the H-matrix          ... done
Storing the new modified H-matrix              ... done


           ************************************************************
           *        Program running with 20 parallel MPI-processes    *
           *              working on a common directory               *
           ************************************************************
-------------------------------------------------------------------------------
                                 ORCA SCF
-------------------------------------------------------------------------------

------------
SCF SETTINGS
------------
Hamiltonian:
 Ab initio Hamiltonian  Method          .... Hartree-Fock(GTOs)

Relativistic Settings:
 Scalar relativistic method             .... Douglas-Kroll-Hess
 Order of DKH procedure    Order        ....    2
 Mode of DKH-treatment                  .... V=V(e,N)
 Speed of light used       Velit        ....       137.035989
 Cutoff-constant           Eps          ....            1e-10 


General Settings:
 Integral files         IntName         .... /home/nikolayandreadi_2125/_scratch/MP2/UO2_C2O4
 Hartree-Fock type      HFTyp           .... RHF
 Total Charge           Charge          ....    0
 Multiplicity           Mult            ....    1
 Number of Electrons    NEL             ....  152
 Basis Dimension        Dim             ....  415
 Nuclear Repulsion      ENuc            ....   1503.7796973671 Eh

Convergence Acceleration:
 DIIS                   CNVDIIS         .... on
   Start iteration      DIISMaxIt       ....     0
   Startup error        DIISStart       ....  0.200000
   # of expansion vecs  DIISMaxEq       ....     5
   Bias factor          DIISBfac        ....   1.050
   Max. coefficient     DIISMaxC        ....  10.000
 Newton-Raphson         CNVNR           .... off
 SOSCF                  CNVSOSCF        .... off
 Level Shifting         CNVShift        .... on
   Level shift para.    LevelShift      ....    0.2500
   Turn off err/grad.   ShiftErr        ....    0.0000
 Zerner damping         CNVZerner       .... off
 Static damping         CNVDamp         .... on
   Fraction old density DampFac         ....    0.8500
   Max. Damping (<1)    DampMax         ....    0.9800
   Min. Damping (>=0)   DampMin         ....    0.0000
   Turn off err/grad.   DampErr         ....    0.0300
 Fernandez-Rico         CNVRico         .... off

SCF Procedure:
 Maximum # iterations   MaxIter         ....  5000
 SCF integral mode      SCFMode         .... Direct
   Integral package                     .... LIBINT
 Reset frequeny         DirectResetFreq ....    20
 Integral Threshold     Thresh          ....  2.500e-11 Eh
 Primitive CutOff       TCut            ....  2.500e-12 Eh

Convergence Tolerance:
 Convergence Check Mode ConvCheckMode   .... Total+1el-Energy
 Convergence forced     ConvForced      .... 1
 Energy Change          TolE            ....  1.000e-08 Eh
 1-El. energy change                    ....  1.000e-05 Eh
 DIIS Error             TolErr          ....  5.000e-07


Diagonalization of the overlap matrix:
Smallest eigenvalue                        ... 3.417e-04
Time for diagonalization                   ...    0.037 sec
Threshold for overlap eigenvalues          ... 1.000e-08
Number of eigenvalues below threshold      ... 0
Time for construction of square roots      ...    0.022 sec
Total time needed                          ...    0.059 sec

--------------------
INITIAL GUESS: HCORE
--------------------
                      -----------------
                      INTIAL GUESS DONE 
                      -----------------
--------------
SCF ITERATIONS
--------------
ITER       Energy         Delta-E        Max-DP      RMS-DP      [F,P]     Damp
               ***  Starting incremental Fock matrix formation  ***
  0 -20915.2515648820   0.00000000000023.09156303  0.15319722 74.0910043 0.8500
  1 -23129.6197573248-2214.36819244278019.62804887  0.11442612 60.2698956 0.8500
                               ***Turning on DIIS***
  2 -24467.2074246014-1337.58766727664626.97153115  0.16097787 49.4678420 0.8500
  3 -27391.9595902842-2924.75216568279212.81662155  0.08252036 40.6128233 0.8500
  4 -27453.1537817597 -61.19419147545311.69018595  0.07038690 34.0705236 0.8500
  5 -27677.4183150913-224.264533331625 9.84663137  0.05985355 28.7678717 0.8500
  6 -27713.3263948003 -35.908079708952 8.59222033  0.05094436 24.3688707 0.8500
  7 -27665.7761241801  47.550270620133 7.48299516  0.04412627 20.6481480 0.8500
  8 -27954.0203796423-288.244255462188 6.14133077  0.03705194 17.4696546 0.8500
  9 -27936.8367428535  17.183636788865 5.35509025  0.03245711 14.8150931 0.8500
 10 -28095.9498045190-159.113061665535 4.41280880  0.02693514 12.5628137 0.8500
 11 -28078.0261882142  17.923616304797 3.86508393  0.02273957 10.6674439 0.8500
 12 -28193.9125503412-115.886362126992 3.17389867  0.01954965  9.0481467 0.8500
 13 -28255.4997721670 -61.587221825794 2.66335927  0.01659829  7.6827118 0.8500
 14 -28217.4750621483  38.024710018726 2.36770860  0.01426731  6.5218475 0.8500
 15 -28290.1662521023 -72.691189954086 1.95651038  0.01202569  5.5288749 0.8500
 16 -28321.3204929088 -31.154240806463 1.64251229  0.01020423  4.6906097 0.8500
 17 -28352.4025817352 -31.082088826395 1.38080685  0.00866494  3.9794315 0.8500
 18 -28374.9744599963 -22.571878261107 1.16829123  0.00736617  3.3757960 0.8500
 19 -28374.3445085015   0.629951494793 1.01201345  0.00627736  2.8630286 0.8500
               *** Restarting incremental Fock matrix formation ***
                                   *** Resetting DIIS ***
 20 -28288.2905421943  86.053966307245 0.97927113  0.00558163  2.4275326 0.8500
 21 -28361.8398225244 -73.549280330139 0.74965366  0.00456306  2.0032826 0.8500
 22 -28397.0854541474 -35.245631623009 0.59551472  0.00383825  1.6740086 0.8500
 23 -28413.1454989778 -16.060044830381 0.49493615  0.00326159  1.4095922 0.8500
 24 -28422.0686404739  -8.923141496052 0.42088723  0.00277280  1.1923956 0.8500
 25 -28426.0741920367  -4.005551562830 0.36342126  0.00235879  1.0111661 0.8500
 26 -28431.2324077119  -5.158215675183 0.31111792  0.00200606  0.8577592 0.8500
 27 -28438.1171075979  -6.884699886068 0.26290277  0.00170512  0.7274398 0.8500
 28 -28444.0163644407  -5.899256842767 0.22228353  0.00144961  0.6169717 0.8500
 29 -28448.4931938906  -4.476829449846 0.18884751  0.00123237  0.5233086 0.8500
 30 -28452.0122475050  -3.519053614469 0.16086478  0.00104758  0.4438633 0.8500
 31 -28455.1196713730  -3.107423867972 0.13684725  0.00089049  0.3764657 0.8500
 32 -28457.9666402248  -2.846968851765 0.11613913  0.00075696  0.3192940 0.8500
 33 -28460.4382247716  -2.471584546860 0.09853195  0.00064351  0.2708078 0.8500
 34 -28462.4996917203  -2.061466948675 0.08368788  0.00054706  0.2296882 0.8500
 35 -28464.2252895404  -1.725597820147 0.07113970  0.00046506  0.1948131 0.8500
 36 -28465.7067272280  -1.481437687537 0.06046418  0.00039535  0.1652330 0.8500
 37 -28466.9941151110  -1.287387883003 0.05136214  0.00033609  0.1401443 0.8500
 38 -28468.1031915408  -1.109076429842 0.04362225  0.00028573  0.1188661 0.8500
 39 -28469.0477046336  -0.944513092771 0.03705824  0.00024292  0.1008196 0.8500
               *** Restarting incremental Fock matrix formation ***
                                   *** Resetting DIIS ***
 40 -28467.4024504013   1.645254232310 0.03487244  0.00020922  0.0855137 0.8500
 41 -28469.6494644196  -2.247014018270 0.02709534  0.00017523  0.0707792 0.8500
 42 -28470.9592686437  -1.309804224133 0.02181247  0.00014903  0.0592062 0.8500
 43 -28471.5517470585  -0.592478414776 0.01843437  0.00012689  0.0499477 0.8500
 44 -28471.9380904083  -0.386343349808 0.01582556  0.00010791  0.0423340 0.8500
 45 -28472.1625739151  -0.224483506798 0.01373134  0.00009178  0.0359445 0.8500
 46 -28472.4894460038  -0.326872088688 0.01171108  0.00007809  0.0304957 0.8500
 47 -28472.8409803221  -0.351534318332 0.06590754  0.00044314  0.0258642 0.0000
 48 -28474.6047270164  -1.763746694283 0.00048986  0.00000894  0.0009093 0.0000
 49 -28474.6250803736  -0.020353357246 0.00083899  0.00000693  0.0005197 0.0000
 50 -28474.5929176654   0.032162708234 0.00071197  0.00000922  0.0005098 0.0000
 51 -28474.6041075945  -0.011189929111 0.00046624  0.00000558  0.0001817 0.0000
 52 -28474.6030372975   0.001070296996 0.00010613  0.00000220  0.0001195 0.0000
 53 -28474.6055254387  -0.002488141225 0.00006078  0.00000112  0.0000415 0.0000
 54 -28474.6056038096  -0.000078370922 0.00001790  0.00000048  0.0000136 0.0000
 55 -28474.6059747596  -0.000370949958 0.00000927  0.00000020  0.0000103 0.0000
 56 -28474.6055450215   0.000429738084 0.00000402  0.00000011  0.0000071 0.0000
 57 -28474.6057012045  -0.000156183014 0.00000357  0.00000009  0.0000051 0.0000
 58 -28474.6057309710  -0.000029766517 0.00000272  0.00000006  0.0000032 0.0000
 59 -28474.6056695500   0.000061421033 0.00000285  0.00000004  0.0000019 0.0000
               *** Restarting incremental Fock matrix formation ***
                                   *** Resetting DIIS ***
 60 -28474.6056580856   0.000011464450 0.00000224  0.00000003  0.0000010 0.0000
                            ***DIIS convergence achieved***

               *****************************************************
               *                     SUCCESS                       *
               *           SCF CONVERGED AFTER  61 CYCLES          *
               *****************************************************


----------------
TOTAL SCF ENERGY
----------------

Total Energy       :       -28474.60571399 Eh         -774833.41325 eV

Components:
Nuclear Repulsion  :         1503.77969737 Eh           40919.92589 eV
Electronic Energy  :       -29978.38541135 Eh         -815753.33914 eV
One Electron Energy:       -41646.21430440 Eh        -1133251.10460 eV
Two Electron Energy:        11667.82889305 Eh          317497.76545 eV

Virial components:
Potential Energy   :       -80770.87524605 Eh        -2197887.25387 eV
Kinetic Energy     :        52296.26953207 Eh         1423053.84063 eV
Virial Ratio       :            1.54448637


---------------
SCF CONVERGENCE
---------------

  Last Energy change         ...   -5.5900e-05  Tolerance :   1.0000e-08
  Last MAX-Density change    ...    1.0849e-06  Tolerance :   1.0000e-07
  Last RMS-Density change    ...    9.8147e-09  Tolerance :   5.0000e-09
  Last DIIS Error            ...    8.4663e-07  Tolerance :   5.0000e-07

             **** THE GBW FILE WAS UPDATED (/home/nikolayandreadi_2125/_scratch/MP2/UO2_C2O4.gbw) ****
             **** DENSITY FILE WAS UPDATED (/home/nikolayandreadi_2125/_scratch/MP2/UO2_C2O4.scfp.tmp) ****
             **** ENERGY FILE WAS UPDATED (/home/nikolayandreadi_2125/_scratch/MP2/UO2_C2O4.en.tmp) ****
----------------
ORBITAL ENERGIES
----------------

  NO   OCC          E(Eh)            E(eV) 
   0   2.0000   -4260.666401   -115938.6270 
   1   2.0000    -804.615615    -21894.7040 
   2   2.0000    -675.267738    -18374.9693 
   3   2.0000    -675.267077    -18374.9513 
   4   2.0000    -675.265250    -18374.9016 
   5   2.0000    -206.669077     -5623.7515 
   6   2.0000    -170.051856     -4627.3462 
   7   2.0000    -170.050835     -4627.3185 
   8   2.0000    -170.035075     -4626.8896 
   9   2.0000    -135.480893     -3686.6225 
  10   2.0000    -135.480810     -3686.6203 
  11   2.0000    -135.474146     -3686.4389 
  12   2.0000    -135.473807     -3686.4297 
  13   2.0000    -135.472797     -3686.4022 
  14   2.0000     -54.643759     -1486.9323 
  15   2.0000     -42.408986     -1154.0072 
  16   2.0000     -42.407269     -1153.9604 
  17   2.0000     -42.377693     -1153.1557 
  18   2.0000     -29.168792      -793.7232 
  19   2.0000     -29.168644      -793.7192 
  20   2.0000     -29.150803      -793.2337 
  21   2.0000     -29.149572      -793.2002 
  22   2.0000     -29.141295      -792.9749 
  23   2.0000     -20.663209      -562.2745 
  24   2.0000     -20.661542      -562.2291 
  25   2.0000     -20.600471      -560.5673 
  26   2.0000     -20.599347      -560.5367 
  27   2.0000     -20.565893      -559.6264 
  28   2.0000     -20.564744      -559.5951 
  29   2.0000     -15.388607      -418.7453 
  30   2.0000     -15.387912      -418.7264 
  31   2.0000     -15.375499      -418.3886 
  32   2.0000     -15.375338      -418.3842 
  33   2.0000     -15.374445      -418.3599 
  34   2.0000     -15.365116      -418.1061 
  35   2.0000     -15.363646      -418.0661 
  36   2.0000     -12.932345      -351.9070 
  37   2.0000     -11.390260      -309.9447 
  38   2.0000     -11.389424      -309.9220 
  39   2.0000      -9.014851      -245.3066 
  40   2.0000      -9.008298      -245.1282 
  41   2.0000      -8.993087      -244.7143 
  42   2.0000      -4.479365      -121.8897 
  43   2.0000      -4.460253      -121.3696 
  44   2.0000      -4.458163      -121.3128 
  45   2.0000      -4.456492      -121.2673 
  46   2.0000      -4.456143      -121.2578 
  47   2.0000      -2.380414       -64.7744 
  48   2.0000      -1.608407       -43.7670 
  49   2.0000      -1.480981       -40.2995 
  50   2.0000      -1.431419       -38.9509 
  51   2.0000      -1.402014       -38.1507 
  52   2.0000      -1.364445       -37.1284 
  53   2.0000      -1.341827       -36.5130 
  54   2.0000      -1.254788       -34.1445 
  55   2.0000      -1.242100       -33.7993 
  56   2.0000      -1.022634       -27.8273 
  57   2.0000      -0.901186       -24.5225 
  58   2.0000      -0.766518       -20.8580 
  59   2.0000      -0.725270       -19.7356 
  60   2.0000      -0.681928       -18.5562 
  61   2.0000      -0.672500       -18.2997 
  62   2.0000      -0.653021       -17.7696 
  63   2.0000      -0.639396       -17.3989 
  64   2.0000      -0.626412       -17.0455 
  65   2.0000      -0.615397       -16.7458 
  66   2.0000      -0.598812       -16.2945 
  67   2.0000      -0.589197       -16.0329 
  68   2.0000      -0.584738       -15.9115 
  69   2.0000      -0.573040       -15.5932 
  70   2.0000      -0.547868       -14.9083 
  71   2.0000      -0.516702       -14.0602 
  72   2.0000      -0.479789       -13.0557 
  73   2.0000      -0.471723       -12.8362 
  74   2.0000      -0.465979       -12.6799 
  75   2.0000      -0.427045       -11.6205 
  76   0.0000      -0.027867        -0.7583 
  77   0.0000       0.009417         0.2563 
  78   0.0000       0.012441         0.3385 
  79   0.0000       0.035661         0.9704 
  80   0.0000       0.051477         1.4008 
  81   0.0000       0.055571         1.5122 
  82   0.0000       0.056472         1.5367 
  83   0.0000       0.079438         2.1616 
  84   0.0000       0.100521         2.7353 
  85   0.0000       0.108233         2.9452 
  86   0.0000       0.111906         3.0451 
  87   0.0000       0.115441         3.1413 
  88   0.0000       0.127780         3.4771 
  89   0.0000       0.133286         3.6269 
  90   0.0000       0.145427         3.9573 
  91   0.0000       0.145925         3.9708 
  92   0.0000       0.153433         4.1751 
  93   0.0000       0.167522         4.5585 
  94   0.0000       0.170587         4.6419 
  95   0.0000       0.201780         5.4907 
  96   0.0000       0.205202         5.5838 
  97   0.0000       0.211609         5.7582 
  98   0.0000       0.278007         7.5650 
  99   0.0000       0.298860         8.1324 
 100   0.0000       0.304018         8.2727 
 101   0.0000       0.315063         8.5733 
 102   0.0000       0.376387        10.2420 
 103   0.0000       0.379106        10.3160 
 104   0.0000       0.382576        10.4104 
 105   0.0000       0.383760        10.4426 
 106   0.0000       0.398184        10.8351 
 107   0.0000       0.410921        11.1817 
 108   0.0000       0.420954        11.4547 
 109   0.0000       0.433748        11.8029 
 110   0.0000       0.444296        12.0899 
 111   0.0000       0.451004        12.2724 
 112   0.0000       0.457443        12.4476 
 113   0.0000       0.473004        12.8711 
 114   0.0000       0.503344        13.6967 
 115   0.0000       0.526861        14.3366 
 116   0.0000       0.529453        14.4071 
 117   0.0000       0.536729        14.6051 
 118   0.0000       0.560220        15.2444 
 119   0.0000       0.570210        15.5162 
 120   0.0000       0.580561        15.7979 
 121   0.0000       0.585932        15.9440 
 122   0.0000       0.596548        16.2329 
 123   0.0000       0.599857        16.3229 
 124   0.0000       0.605906        16.4875 
 125   0.0000       0.641296        17.4506 
 126   0.0000       0.666066        18.1246 
 127   0.0000       0.680042        18.5049 
 128   0.0000       0.713150        19.4058 
 129   0.0000       0.715385        19.4666 
 130   0.0000       0.728173        19.8146 
 131   0.0000       0.740584        20.1523 
 132   0.0000       0.750000        20.4086 
 133   0.0000       0.761710        20.7272 
 134   0.0000       0.779232        21.2040 
 135   0.0000       0.792601        21.5678 
 136   0.0000       0.800570        21.7846 
 137   0.0000       0.808777        22.0079 
 138   0.0000       0.816253        22.2114 
 139   0.0000       0.831493        22.6261 
 140   0.0000       0.867558        23.6075 
 141   0.0000       0.879847        23.9418 
 142   0.0000       0.904426        24.6107 
 143   0.0000       0.926886        25.2218 
 144   0.0000       0.930404        25.3176 
 145   0.0000       0.943195        25.6656 
 146   0.0000       0.960897        26.1473 
 147   0.0000       1.002729        27.2856 
 148   0.0000       1.040139        28.3036 
 149   0.0000       1.069753        29.1095 
 150   0.0000       1.091783        29.7089 
 151   0.0000       1.138083        30.9688 
 152   0.0000       1.140264        31.0282 
 153   0.0000       1.158708        31.5300 
 154   0.0000       1.169852        31.8333 
 155   0.0000       1.186270        32.2800 
 156   0.0000       1.200823        32.6761 
 157   0.0000       1.259345        34.2685 
 158   0.0000       1.271339        34.5949 
 159   0.0000       1.281624        34.8748 
 160   0.0000       1.298907        35.3450 
 161   0.0000       1.314303        35.7640 
 162   0.0000       1.347989        36.6806 
 163   0.0000       1.359071        36.9822 
 164   0.0000       1.393706        37.9247 
 165   0.0000       1.443423        39.2775 
 166   0.0000       1.486567        40.4515 
 167   0.0000       1.526920        41.5496 
 168   0.0000       1.559543        42.4373 
 169   0.0000       1.587828        43.2070 
 170   0.0000       1.605313        43.6828 
 171   0.0000       1.661758        45.2187 
 172   0.0000       1.670300        45.4512 
 173   0.0000       1.701264        46.2937 
 174   0.0000       1.720819        46.8259 
 175   0.0000       1.755651        47.7737 
 176   0.0000       1.761075        47.9213 
 177   0.0000       1.777253        48.3615 
 178   0.0000       1.810264        49.2598 
 179   0.0000       1.827943        49.7409 
 180   0.0000       1.860355        50.6228 
 181   0.0000       1.874322        51.0029 
 182   0.0000       1.917913        52.1891 
 183   0.0000       1.936939        52.7068 
 184   0.0000       1.956508        53.2393 
 185   0.0000       1.963577        53.4317 
 186   0.0000       1.969955        53.6052 
 187   0.0000       1.994497        54.2730 
 188   0.0000       2.052298        55.8459 
 189   0.0000       2.072929        56.4073 
 190   0.0000       2.090352        56.8814 
 191   0.0000       2.121430        57.7270 
 192   0.0000       2.127318        57.8873 
 193   0.0000       2.161465        58.8164 
 194   0.0000       2.178719        59.2860 
 195   0.0000       2.186676        59.5025 
 196   0.0000       2.218523        60.3691 
 197   0.0000       2.247819        61.1663 
 198   0.0000       2.264764        61.6274 
 199   0.0000       2.282844        62.1193 
 200   0.0000       2.301540        62.6281 
 201   0.0000       2.347811        63.8872 
 202   0.0000       2.362668        64.2915 
 203   0.0000       2.407749        65.5182 
 204   0.0000       2.430943        66.1493 
 205   0.0000       2.441703        66.4421 
 206   0.0000       2.453113        66.7526 
 207   0.0000       2.469699        67.2039 
 208   0.0000       2.483762        67.5866 
 209   0.0000       2.500901        68.0530 
 210   0.0000       2.546577        69.2959 
 211   0.0000       2.583692        70.3058 
 212   0.0000       2.612386        71.0866 
 213   0.0000       2.646061        72.0030 
 214   0.0000       2.699804        73.4654 
 215   0.0000       2.807167        76.3869 
 216   0.0000       2.847054        77.4723 
 217   0.0000       2.860487        77.8378 
 218   0.0000       2.991470        81.4020 
 219   0.0000       3.003835        81.7385 
 220   0.0000       3.010802        81.9281 
 221   0.0000       3.056382        83.1684 
 222   0.0000       3.108625        84.5900 
 223   0.0000       3.130790        85.1931 
 224   0.0000       3.153166        85.8020 
 225   0.0000       3.171432        86.2990 
 226   0.0000       3.185908        86.6930 
 227   0.0000       3.199885        87.0733 
 228   0.0000       3.227087        87.8135 
 229   0.0000       3.309099        90.0452 
 230   0.0000       3.323339        90.4327 
 231   0.0000       3.339275        90.8663 
 232   0.0000       3.361858        91.4808 
 233   0.0000       3.379485        91.9605 
 234   0.0000       3.406820        92.7043 
 235   0.0000       3.434593        93.4600 
 236   0.0000       3.462934        94.2312 
 237   0.0000       3.499821        95.2350 
 238   0.0000       3.504256        95.3557 
 239   0.0000       3.536374        96.2296 
 240   0.0000       3.540188        96.3334 
 241   0.0000       3.564735        97.0014 
 242   0.0000       3.600479        97.9740 
 243   0.0000       3.643150        99.1352 
 244   0.0000       3.685250       100.2807 
 245   0.0000       3.715279       101.0979 
 246   0.0000       3.730608       101.5150 
 247   0.0000       3.745850       101.9298 
 248   0.0000       3.756143       102.2098 
 249   0.0000       3.783434       102.9525 
 250   0.0000       3.833806       104.3232 
 251   0.0000       3.838770       104.4582 
 252   0.0000       3.848344       104.7188 
 253   0.0000       3.885359       105.7260 
 254   0.0000       3.892735       105.9267 
 255   0.0000       3.930047       106.9420 
 256   0.0000       3.938432       107.1702 
 257   0.0000       3.994725       108.7020 
 258   0.0000       4.041330       109.9702 
 259   0.0000       4.058078       110.4259 
 260   0.0000       4.068372       110.7060 
 261   0.0000       4.078160       110.9724 
 262   0.0000       4.151036       112.9554 
 263   0.0000       4.276349       116.3654 
 264   0.0000       4.312717       117.3550 
 265   0.0000       4.433987       120.6549 
 266   0.0000       4.652872       126.6111 
 267   0.0000       4.657600       126.7397 
 268   0.0000       4.674905       127.2106 
 269   0.0000       4.829981       131.4305 
 270   0.0000       4.877260       132.7170 
 271   0.0000       4.908633       133.5707 
 272   0.0000       5.248852       142.8285 
 273   0.0000       5.458666       148.5379 
 274   0.0000       5.466476       148.7504 
 275   0.0000       5.467725       148.7843 
 276   0.0000       5.478702       149.0831 
 277   0.0000       5.481398       149.1564 
 278   0.0000       5.490529       149.4049 
 279   0.0000       5.499216       149.6413 
 280   0.0000       5.503434       149.7561 
 281   0.0000       5.505564       149.8140 
 282   0.0000       5.515358       150.0805 
 283   0.0000       5.577263       151.7650 
 284   0.0000       5.597489       152.3154 
 285   0.0000       5.614086       152.7670 
 286   0.0000       5.620360       152.9378 
 287   0.0000       5.627255       153.1254 
 288   0.0000       5.635842       153.3591 
 289   0.0000       5.658522       153.9762 
 290   0.0000       5.664939       154.1508 
 291   0.0000       5.693105       154.9173 
 292   0.0000       5.698231       155.0567 
 293   0.0000       5.721618       155.6931 
 294   0.0000       5.783413       157.3747 
 295   0.0000       5.827925       158.5859 
 296   0.0000       5.894778       160.4051 
 297   0.0000       5.931716       161.4102 
 298   0.0000       5.968435       162.4094 
 299   0.0000       5.974822       162.5832 
 300   0.0000       5.980725       162.7438 
 301   0.0000       5.992079       163.0528 
 302   0.0000       6.149472       167.3356 
 303   0.0000       6.150849       167.3731 
 304   0.0000       6.300875       171.4555 
 305   0.0000       6.337566       172.4539 
 306   0.0000       6.392749       173.9555 
 307   0.0000       6.511367       177.1833 
 308   0.0000       6.559397       178.4903 
 309   0.0000       6.578212       179.0022 
 310   0.0000       6.703835       182.4206 
 311   0.0000       6.722162       182.9193 
 312   0.0000       6.740438       183.4166 
 313   0.0000       6.757624       183.8843 
 314   0.0000       6.793009       184.8472 
 315   0.0000       6.819193       185.5597 
 316   0.0000       6.841525       186.1674 
 317   0.0000       6.850161       186.4023 
 318   0.0000       6.887936       187.4303 
 319   0.0000       6.900680       187.7770 
 320   0.0000       6.912771       188.1061 
 321   0.0000       6.949476       189.1049 
 322   0.0000       7.003589       190.5773 
 323   0.0000       7.030853       191.3192 
 324   0.0000       7.032575       191.3661 
 325   0.0000       7.088162       192.8787 
 326   0.0000       7.101308       193.2364 
 327   0.0000       7.124704       193.8731 
 328   0.0000       7.135226       194.1594 
 329   0.0000       7.244050       197.1206 
 330   0.0000       7.255537       197.4332 
 331   0.0000       7.283113       198.1836 
 332   0.0000       7.299866       198.6394 
 333   0.0000       7.307516       198.8476 
 334   0.0000       7.362621       200.3471 
 335   0.0000       7.379516       200.8068 
 336   0.0000       7.421019       201.9362 
 337   0.0000       7.438085       202.4006 
 338   0.0000       7.497373       204.0139 
 339   0.0000       7.539041       205.1477 
 340   0.0000       7.594518       206.6573 
 341   0.0000       7.689172       209.2330 
 342   0.0000       7.691402       209.2937 
 343   0.0000       7.727782       210.2836 
 344   0.0000       7.990555       217.4341 
 345   0.0000       8.177071       222.5094 
 346   0.0000       8.434156       229.5050 
 347   0.0000       8.782883       238.9944 
 348   0.0000       9.036576       245.8977 
 349   0.0000       9.053509       246.3585 
 350   0.0000       9.137516       248.6445 
 351   0.0000       9.169328       249.5101 
 352   0.0000       9.190599       250.0889 
 353   0.0000       9.519133       259.0288 
 354   0.0000       9.697518       263.8829 
 355   0.0000       9.905259       269.5358 
 356   0.0000      13.607829       370.2879 
 357   0.0000      13.625234       370.7615 
 358   0.0000      13.644777       371.2933 
 359   0.0000      13.649044       371.4094 
 360   0.0000      13.734853       373.7443 
 361   0.0000      13.803644       375.6163 
 362   0.0000      14.093055       383.4915 
 363   0.0000      15.439018       420.1170 
 364   0.0000      15.476437       421.1352 
 365   0.0000      15.549596       423.1260 
 366   0.0000      15.558522       423.3689 
 367   0.0000      15.579804       423.9480 
 368   0.0000      15.723131       427.8482 
 369   0.0000      40.710255      1107.7823 
 370   0.0000      41.079364      1117.8263 
 371   0.0000      44.224267      1203.4035 
 372   0.0000      46.724132      1271.4283 
 373   0.0000      46.735083      1271.7263 
 374   0.0000      46.757630      1272.3398 
 375   0.0000      46.793936      1273.3277 
 376   0.0000      47.069159      1280.8169 
 377   0.0000      47.374055      1289.1136 
 378   0.0000      47.562960      1294.2539 
 379   0.0000      47.674991      1297.3025 
 380   0.0000      53.173458      1446.9234 
 381   0.0000      53.181547      1447.1435 
 382   0.0000      53.187676      1447.3103 
 383   0.0000      53.188662      1447.3371 
 384   0.0000      53.238069      1448.6815 
 385   0.0000      53.272273      1449.6122 
 386   0.0000      53.412851      1453.4376 
 387   0.0000      79.067944      2151.5481 
 388   0.0000      79.107435      2152.6228 
 389   0.0000      79.154468      2153.9026 
 390   0.0000      79.183572      2154.6945 
 391   0.0000      79.208809      2155.3813 
 392   0.0000      79.350842      2159.2462 
 393   0.0000     205.138791      5582.1103 
 394   0.0000     235.949066      6420.5005 
 395   0.0000     235.957422      6420.7279 
 396   0.0000     235.969768      6421.0638 
 397   0.0000     235.996034      6421.7786 
 398   0.0000     236.140307      6425.7044 
 399   0.0000     264.310678      7192.2592 
 400   0.0000     264.433504      7195.6015 
 401   0.0000     264.519998      7197.9551 
 402   0.0000     792.522149     21565.6240 
 403   0.0000    1085.641926     29541.8187 
 404   0.0000    1085.725747     29544.0996 
 405   0.0000    1085.779241     29545.5552 
 406   0.0000    2430.769593     66144.6033 
 407   0.0000    3783.378117    102950.9525 
 408   0.0000    3783.436255    102952.5345 
 409   0.0000    3783.470288    102953.4606 
 410   0.0000    6095.713157    165872.7878 
 411   0.0000   13027.335878    354491.8313 
 412   0.0000   24922.238049    678168.5747 
 413   0.0000   43992.462113   1197095.7533 
 414   0.0000   84401.570778   2296683.5020 

                    ********************************
                    * MULLIKEN POPULATION ANALYSIS *
                    ********************************

-----------------------
MULLIKEN ATOMIC CHARGES
-----------------------
   0 O :   -0.733221
   1 C :    0.554687
   2 O :   -0.450171
   3 C :    0.555049
   4 O :   -0.451087
   5 O :   -0.736811
   6 U :    2.637886
   7 O :   -0.692098
   8 O :   -0.684233
Sum of atomic charges:   -0.0000000

--------------------------------
MULLIKEN REDUCED ORBITAL CHARGES
--------------------------------
  0 O s       :     3.915618  s :     3.915618
      pz      :     1.647968  p :     4.792287
      px      :     1.458700
      py      :     1.685619
      dz2     :     0.002608  d :     0.023598
      dxz     :     0.005757
      dyz     :     0.002624
      dx2y2   :     0.008586
      dxy     :     0.004025
      f0      :     0.000206  f :     0.001718
      f+1     :     0.000310
      f-1     :     0.000064
      f+2     :     0.000401
      f-2     :     0.000227
      f+3     :     0.000278
      f-3     :     0.000232
  1 C s       :     3.040364  s :     3.040364
      pz      :     0.665338  p :     2.112618
      px      :     0.660807
      py      :     0.786473
      dz2     :     0.034157  d :     0.264550
      dxz     :     0.036014
      dyz     :     0.046911
      dx2y2   :     0.071477
      dxy     :     0.075990
      f0      :     0.001623  f :     0.027782
      f+1     :     0.003488
      f-1     :     0.002382
      f+2     :     0.003363
      f-2     :     0.003679
      f+3     :     0.004437
      f-3     :     0.008809
  2 O s       :     3.924623  s :     3.924623
      pz      :     1.435260  p :     4.486212
      px      :     1.625429
      py      :     1.425523
      dz2     :     0.004302  d :     0.037014
      dxz     :     0.002601
      dyz     :     0.011060
      dx2y2   :     0.008791
      dxy     :     0.010259
      f0      :     0.000187  f :     0.002322
      f+1     :     0.000068
      f-1     :     0.000329
      f+2     :     0.000274
      f-2     :     0.000345
      f+3     :     0.000558
      f-3     :     0.000559
  3 C s       :     3.038961  s :     3.038961
      pz      :     0.662526  p :     2.112559
      px      :     0.662963
      py      :     0.787069
      dz2     :     0.052699  d :     0.265638
      dxz     :     0.039917
      dyz     :     0.032378
      dx2y2   :     0.062218
      dxy     :     0.078426
      f0      :     0.000939  f :     0.027793
      f+1     :     0.004804
      f-1     :     0.002352
      f+2     :     0.003238
      f-2     :     0.004844
      f+3     :     0.004630
      f-3     :     0.006986
  4 O s       :     3.923978  s :     3.923978
      pz      :     1.372695  p :     4.487826
      px      :     1.329361
      py      :     1.785770
      dz2     :     0.007859  d :     0.036963
      dxz     :     0.010907
      dyz     :     0.002464
      dx2y2   :     0.009022
      dxy     :     0.006711
      f0      :     0.000127  f :     0.002320
      f+1     :     0.000592
      f-1     :     0.000036
      f+2     :     0.000465
      f-2     :     0.000277
      f+3     :     0.000441
      f-3     :     0.000384
  5 O s       :     3.915577  s :     3.915577
      pz      :     1.637908  p :     4.796021
      px      :     1.549388
      py      :     1.608725
      dz2     :     0.002452  d :     0.023506
      dxz     :     0.002796
      dyz     :     0.005700
      dx2y2   :     0.005050
      dxy     :     0.007508
      f0      :     0.000198  f :     0.001707
      f+1     :     0.000227
      f-1     :     0.000130
      f+2     :     0.000195
      f-2     :     0.000435
      f+3     :     0.000278
      f-3     :     0.000245
  6 U s       :    12.367456  s :    12.367456
      pz      :     9.705307  p :    29.489792
      px      :     9.814258
      py      :     9.970227
      dz2     :     6.326862  d :    31.379468
      dxz     :     6.307179
      dyz     :     6.302973
      dx2y2   :     6.221213
      dxy     :     6.221241
      f0      :     2.266585  f :    16.125398
      f+1     :     2.732991
      f-1     :     2.177941
      f+2     :     2.436632
      f-2     :     2.283290
      f+3     :     2.137397
      f-3     :     2.090562
  7 O s       :     4.060435  s :     4.060435
      pz      :     1.400925  p :     4.587662
      px      :     1.576368
      py      :     1.610369
      dz2     :     0.013556  d :     0.041391
      dxz     :     0.010448
      dyz     :     0.009511
      dx2y2   :     0.003829
      dxy     :     0.004048
      f0      :     0.000613  f :     0.002611
      f+1     :     0.000883
      f-1     :     0.000305
      f+2     :     0.000387
      f-2     :     0.000335
      f+3     :     0.000044
      f-3     :     0.000044
  8 O s       :     4.057068  s :     4.057068
      pz      :     1.510127  p :     4.583310
      px      :     1.471911
      py      :     1.601271
      dz2     :     0.010964  d :     0.041251
      dxz     :     0.010531
      dyz     :     0.007734
      dx2y2   :     0.005926
      dxy     :     0.006096
      f0      :     0.000334  f :     0.002604
      f+1     :     0.000719
      f-1     :     0.000141
      f+2     :     0.000611
      f-2     :     0.000478
      f+3     :     0.000159
      f-3     :     0.000162


                     *******************************
                     * LOEWDIN POPULATION ANALYSIS *
                     *******************************

----------------------
LOEWDIN ATOMIC CHARGES
----------------------
   0 O :    0.024607
   1 C :   -0.379066
   2 O :    0.114309
   3 C :   -0.381575
   4 O :    0.112725
   5 O :    0.021585
   6 U :    0.809577
   7 O :   -0.159510
   8 O :   -0.162653

-------------------------------
LOEWDIN REDUCED ORBITAL CHARGES
-------------------------------
  0 O s       :     3.322838  s :     3.322838
      pz      :     1.531517  p :     4.581936
      px      :     1.450609
      py      :     1.599811
      dz2     :     0.007323  d :     0.065848
      dxz     :     0.015028
      dyz     :     0.009450
      dx2y2   :     0.020017
      dxy     :     0.014030
      f0      :     0.000477  f :     0.004771
      f+1     :     0.000515
      f-1     :     0.000130
      f+2     :     0.001054
      f-2     :     0.000744
      f+3     :     0.000907
      f-3     :     0.000943
  1 C s       :     2.753606  s :     2.753606
      pz      :     0.702431  p :     2.517318
      px      :     0.822453
      py      :     0.992434
      dz2     :     0.114754  d :     0.950482
      dxz     :     0.143845
      dyz     :     0.140043
      dx2y2   :     0.289075
      dxy     :     0.262765
      f0      :     0.010825  f :     0.157660
      f+1     :     0.015543
      f-1     :     0.013210
      f+2     :     0.019315
      f-2     :     0.023902
      f+3     :     0.024847
      f-3     :     0.050018
  2 O s       :     3.399068  s :     3.399068
      pz      :     1.350118  p :     4.415105
      px      :     1.535698
      py      :     1.529289
      dz2     :     0.007910  d :     0.065681
      dxz     :     0.004425
      dyz     :     0.014025
      dx2y2   :     0.019296
      dxy     :     0.020026
      f0      :     0.000491  f :     0.005836
      f+1     :     0.000204
      f-1     :     0.000757
      f+2     :     0.000532
      f-2     :     0.000836
      f+3     :     0.001600
      f-3     :     0.001417
  3 C s       :     2.753433  s :     2.753433
      pz      :     0.734052  p :     2.518132
      px      :     0.889660
      py      :     0.894419
      dz2     :     0.140565  d :     0.952079
      dxz     :     0.165829
      dyz     :     0.131898
      dx2y2   :     0.219770
      dxy     :     0.294017
      f0      :     0.009655  f :     0.157933
      f+1     :     0.019916
      f-1     :     0.013137
      f+2     :     0.021847
      f-2     :     0.027156
      f+3     :     0.026671
      f-3     :     0.039550
  4 O s       :     3.399218  s :     3.399218
      pz      :     1.345303  p :     4.416560
      px      :     1.447578
      py      :     1.623679
      dz2     :     0.008524  d :     0.065661
      dxz     :     0.021279
      dyz     :     0.004623
      dx2y2   :     0.017333
      dxy     :     0.013903
      f0      :     0.000484  f :     0.005835
      f+1     :     0.000961
      f-1     :     0.000046
      f+2     :     0.001436
      f-2     :     0.000845
      f+3     :     0.001046
      f-3     :     0.001017
  5 O s       :     3.324132  s :     3.324132
      pz      :     1.534862  p :     4.584612
      px      :     1.510535
      py      :     1.539215
      dz2     :     0.007349  d :     0.064945
      dxz     :     0.015039
      dyz     :     0.009992
      dx2y2   :     0.017087
      dxy     :     0.015479
      f0      :     0.000459  f :     0.004725
      f+1     :     0.000412
      f-1     :     0.000338
      f+2     :     0.000696
      f-2     :     0.001003
      f+3     :     0.000936
      f-3     :     0.000882
  6 U s       :    12.022408  s :    12.022408
      pz      :     9.836157  p :    29.757106
      px      :     9.909888
      py      :    10.011061
      dz2     :     6.518660  d :    32.348719
      dxz     :     6.679364
      dyz     :     6.428783
      dx2y2   :     6.391597
      dxy     :     6.330315
      f0      :     2.400384  f :    17.062190
      f+1     :     2.973769
      f-1     :     2.260878
      f+2     :     2.623816
      f-2     :     2.407414
      f+3     :     2.227352
      f-3     :     2.168578
  7 O s       :     3.553073  s :     3.553073
      pz      :     1.472647  p :     4.499821
      px      :     1.521930
      py      :     1.505243
      dz2     :     0.034657  d :     0.099341
      dxz     :     0.039202
      dyz     :     0.013106
      dx2y2   :     0.006884
      dxy     :     0.005493
      f0      :     0.001427  f :     0.007275
      f+1     :     0.003166
      f-1     :     0.000645
      f+2     :     0.001099
      f-2     :     0.000722
      f+3     :     0.000114
      f-3     :     0.000103
  8 O s       :     3.554165  s :     3.554165
      pz      :     1.516213  p :     4.502025
      px      :     1.483147
      py      :     1.502665
      dz2     :     0.017718  d :     0.099208
      dxz     :     0.045540
      dyz     :     0.012098
      dx2y2   :     0.014087
      dxy     :     0.009766
      f0      :     0.000797  f :     0.007255
      f+1     :     0.002239
      f-1     :     0.000359
      f+2     :     0.001913
      f-2     :     0.001162
      f+3     :     0.000398
      f-3     :     0.000386


                      *****************************
                      * MAYER POPULATION ANALYSIS *
                      *****************************

  NA   - Mulliken gross atomic population
  ZA   - Total nuclear charge
  QA   - Mulliken gross atomic charge
  VA   - Mayer's total valence
  BVA  - Mayer's bonded valence
  FA   - Mayer's free valence

  ATOM       NA         ZA         QA         VA         BVA        FA
  0 O      8.7332     8.0000    -0.7332     1.4676     1.4676    -0.0000
  1 C      5.4453     6.0000     0.5547     3.9919     3.9919    -0.0000
  2 O      8.4502     8.0000    -0.4502     1.9687     1.9687     0.0000
  3 C      5.4450     6.0000     0.5550     3.9998     3.9998    -0.0000
  4 O      8.4511     8.0000    -0.4511     1.9673     1.9673    -0.0000
  5 O      8.7368     8.0000    -0.7368     1.4721     1.4721    -0.0000
  6 U     89.3621    92.0000     2.6379     3.1783     3.1783     0.0000
  7 O      8.6921     8.0000    -0.6921     1.3739     1.3739     0.0000
  8 O      8.6842     8.0000    -0.6842     1.3664     1.3664     0.0000

  Mayer bond orders larger than 0.1
B(  0-O ,  1-C ) :   1.0773 B(  0-O ,  6-U ) :   0.3689 B(  1-C ,  2-O ) :   1.9559 
B(  1-C ,  3-C ) :   0.9608 B(  3-C ,  4-O ) :   1.9543 B(  3-C ,  5-O ) :   1.0852 
B(  5-O ,  6-U ) :   0.3648 B(  6-U ,  7-O ) :   1.2050 B(  6-U ,  8-O ) :   1.2019 


-------
TIMINGS
-------

Total SCF time: 0 days 0 hours 4 min 31 sec 

Total time                  ....     271.898 sec
Sum of individual times     ....     270.859 sec  ( 99.6%)

Fock matrix formation       ....     262.094 sec  ( 96.4%)
Diagonalization             ....       5.269 sec  (  1.9%)
Density matrix formation    ....       0.147 sec  (  0.1%)
Population analysis         ....       0.124 sec  (  0.0%)
Initial guess               ....       0.080 sec  (  0.0%)
Orbital Transformation      ....       0.000 sec  (  0.0%)
Orbital Orthonormalization  ....       0.000 sec  (  0.0%)
DIIS solution               ....       3.146 sec  (  1.2%)


           ************************************************************
           *        Program running with 20 parallel MPI-processes    *
           *              working on a common directory               *
           ************************************************************

------------------------------------------------------------------------------
                                ORCA  MP2 
------------------------------------------------------------------------------

Freezing NCore=84 chemical core electrons
MP2 will be done in the AO integral direct mode
The Q1-step will be done using symmetric double matrices
Dimension of the basis                    ...  415
Memory devoted for MP2                    ... 31500 MB   
Memory needed for all in one shot         ...  548 MB
Number of MOs that can be treated together...  114      
MP2 density construction                  ... relaxed
The MP2 gradient is requested => amplitudes will be stored on disk
Total number of MOs              ...   34
Number of MOs treated per batch  ...    2 
Number of batches necessary      ...    1 
OPERATORS   0/  0 PASS   0
-----------------------------------------------
 MP2 CORRELATION ENERGY   :     -2.665152741 Eh
-----------------------------------------------


---------------------
MP2 DENSITY FORMATION
---------------------

Completing the external part of the density      ... done
Storing the unrelaxed density                    ... done

Calculating G(D)                                 ... done
Completing the Lagrangian                        ... done
Solving the Z-vector equations                   ... 

------------------------------------------------------------------------------
                           ORCA CP-SCF CALCULATION
------------------------------------------------------------------------------

Input orbitals are from        ... /home/nikolayandreadi_2125/_scratch/MP2/UO2_C2O4.gbw
Input Perturbation             ... /home/nikolayandreadi_2125/_scratch/MP2/UO2_C2O4.pin.tmp
Wavefunction output            ... /home/nikolayandreadi_2125/_scratch/MP2/UO2_C2O4.pout.tmp
Perturbation mode              ... Real perturbation
Solver                         ... DIIS
   MaxDIIS                     ... 20
   Levelshift                  ...    3.000e-01 Eh
Max. number of iterations      ... 5000
Convergence tolerance          ... 1.000e-08
Integral handling              ... Direct
Number of perturbations        ... 1
Number of operators            ... 1
Orbital ranges used for CP-SCF:
 Operator 0:  Orbitals   0... 75  to  76...414
Variables per vector in CP-SCF ... 25764
Number of vectors sought       ... 1

Solving the CP-SCF equations by a DIIS algorithm

-----------------
CP-SCF ITERATIONS
-----------------
  Iteration   0: MaxR=  0.946564946
  Iteration   1: MaxR=  0.836658266
  Iteration   2: MaxR=  0.222760771
  Iteration   3: MaxR=  0.142307849
  Iteration   4: MaxR=  0.066349143
  Iteration   5: MaxR=  0.029391118
  Iteration   6: MaxR=  0.009788283
  Iteration   7: MaxR=  0.004352622
  Iteration   8: MaxR=  0.001455621
  Iteration   9: MaxR=  0.000647972
  Iteration  10: MaxR=  0.000315648
  Iteration  11: MaxR=  0.000189673
  Iteration  12: MaxR=  0.000110941
  Iteration  13: MaxR=  0.000059525
  Iteration  14: MaxR=  0.000027995
  Iteration  15: MaxR=  0.000013628
  Iteration  16: MaxR=  0.000006182
  Iteration  17: MaxR=  0.000002229
  Iteration  18: MaxR=  0.000001024
  Iteration  19: MaxR=  0.000000537
  Iteration  20: MaxR=  0.000000280
  Iteration  21: MaxR=  0.000000158
  Iteration  22: MaxR=  0.000000082
  Iteration  23: MaxR=  0.000000038
  Iteration  24: MaxR=  0.000000019
  Iteration  25: MaxR=  0.000000010
                              *** THE CP-SCF HAS CONVERGED *** 
                                                 ... done
Finalizing the relaxed density                   ... done
Transforming P to the AO basis                   ... done
Storing the relaxed density                      ... done

------------------------------------
ENERGY WEIGHTED DENSITY FINALIZATION
------------------------------------

Gathering the parts of the W-matrix              ...                                                      done
Forming the Z-density                            ... done
Transforming Z to the AO basis                   ... done
Calculating G(Z)                                 ... done
Finalizing the W-matrix                          ...                                                      done
Transforming W to the AO basis and storing       ... done

                *********************************************
                * UNRELAXED MP2 DENSITY POPULATION ANALYSIS *
                *********************************************

------------------------------------------------------------------------------
                           ORCA POPULATION ANALYSIS
------------------------------------------------------------------------------
Input electron density              ... /home/nikolayandreadi_2125/_scratch/MP2/UO2_C2O4.pmp2ur
BaseName (.gbw .S,...)              ... /home/nikolayandreadi_2125/_scratch/MP2/UO2_C2O4

                    ********************************
                    * MULLIKEN POPULATION ANALYSIS *
                    ********************************

-----------------------
MULLIKEN ATOMIC CHARGES
-----------------------
   0 O :   -0.701550
   1 C :    0.519540
   2 O :   -0.424965
   3 C :    0.519714
   4 O :   -0.425893
   5 O :   -0.705312
   6 U :    2.490200
   7 O :   -0.639410
   8 O :   -0.632324
Sum of atomic charges:   -0.0000000

--------------------------------
MULLIKEN REDUCED ORBITAL CHARGES
--------------------------------
  0 O s       :     3.907992  s :     3.907992
      pz      :     1.627661  p :     4.733145
      px      :     1.443178
      py      :     1.662305
      dz2     :     0.009046  d :     0.055889
      dxz     :     0.011941
      dyz     :     0.009212
      dx2y2   :     0.014926
      dxy     :     0.010765
      f0      :     0.000591  f :     0.004524
      f+1     :     0.000711
      f-1     :     0.000452
      f+2     :     0.000801
      f-2     :     0.000622
      f+3     :     0.000696
      f-3     :     0.000650
  1 C s       :     3.041526  s :     3.041526
      pz      :     0.677650  p :     2.130446
      px      :     0.667589
      py      :     0.785207
      dz2     :     0.036847  d :     0.277614
      dxz     :     0.038432
      dyz     :     0.049834
      dx2y2   :     0.074064
      dxy     :     0.078436
      f0      :     0.001959  f :     0.030874
      f+1     :     0.003777
      f-1     :     0.002785
      f+2     :     0.003767
      f-2     :     0.004173
      f+3     :     0.005009
      f-3     :     0.009404
  2 O s       :     3.917562  s :     3.917562
      pz      :     1.418730  p :     4.439663
      px      :     1.608226
      py      :     1.412707
      dz2     :     0.009405  d :     0.062756
      dxz     :     0.007908
      dyz     :     0.015983
      dx2y2   :     0.014156
      dxy     :     0.015304
      f0      :     0.000545  f :     0.004984
      f+1     :     0.000415
      f-1     :     0.000709
      f+2     :     0.000654
      f-2     :     0.000724
      f+3     :     0.000957
      f-3     :     0.000980
  3 C s       :     3.040216  s :     3.040216
      pz      :     0.673682  p :     2.130475
      px      :     0.667690
      py      :     0.789103
      dz2     :     0.054976  d :     0.278707
      dxz     :     0.041964
      dyz     :     0.035829
      dx2y2   :     0.065101
      dxy     :     0.080837
      f0      :     0.001368  f :     0.030888
      f+1     :     0.005013
      f-1     :     0.002779
      f+2     :     0.003694
      f-2     :     0.005270
      f+3     :     0.005162
      f-3     :     0.007603
  4 O s       :     3.916923  s :     3.916923
      pz      :     1.357414  p :     4.441272
      px      :     1.317064
      py      :     1.766795
      dz2     :     0.012857  d :     0.062715
      dxz     :     0.015591
      dyz     :     0.007930
      dx2y2   :     0.014037
      dxy     :     0.012298
      f0      :     0.000491  f :     0.004983
      f+1     :     0.000985
      f-1     :     0.000388
      f+2     :     0.000836
      f-2     :     0.000667
      f+3     :     0.000829
      f-3     :     0.000787
  5 O s       :     3.907983  s :     3.907983
      pz      :     1.617106  p :     4.737111
      px      :     1.529567
      py      :     1.590438
      dz2     :     0.008919  d :     0.055710
      dxz     :     0.009449
      dyz     :     0.011884
      dx2y2   :     0.011608
      dxy     :     0.013850
      f0      :     0.000584  f :     0.004507
      f+1     :     0.000617
      f-1     :     0.000528
      f+2     :     0.000599
      f-2     :     0.000827
      f+3     :     0.000693
      f-3     :     0.000660
  6 U s       :    12.360809  s :    12.360809
      pz      :     9.690691  p :    29.431512
      px      :     9.795449
      py      :     9.945372
      dz2     :     6.339478  d :    31.436692
      dxz     :     6.313979
      dyz     :     6.316684
      dx2y2   :     6.232434
      dxy     :     6.234117
      f0      :     2.295314  f :    16.280786
      f+1     :     2.746991
      f-1     :     2.203316
      f+2     :     2.455012
      f-2     :     2.307568
      f+3     :     2.160955
      f-3     :     2.111631
  7 O s       :     4.052005  s :     4.052005
      pz      :     1.380224  p :     4.510597
      px      :     1.548682
      py      :     1.581691
      dz2     :     0.019558  d :     0.071322
      dxz     :     0.016494
      dyz     :     0.015542
      dx2y2   :     0.009751
      dxy     :     0.009976
      f0      :     0.001065  f :     0.005487
      f+1     :     0.001321
      f-1     :     0.000734
      f+2     :     0.000797
      f-2     :     0.000749
      f+3     :     0.000411
      f-3     :     0.000411
  8 O s       :     4.048731  s :     4.048731
      pz      :     1.484475  p :     4.506955
      px      :     1.449191
      py      :     1.573289
      dz2     :     0.017038  d :     0.071158
      dxz     :     0.016497
      dyz     :     0.013697
      dx2y2   :     0.011860
      dxy     :     0.012066
      f0      :     0.000767  f :     0.005479
      f+1     :     0.001160
      f-1     :     0.000546
      f+2     :     0.001017
      f-2     :     0.000891
      f+3     :     0.000547
      f-3     :     0.000550


                     *******************************
                     * LOEWDIN POPULATION ANALYSIS *
                     *******************************

----------------------
LOEWDIN ATOMIC CHARGES
----------------------
   0 O :    0.045112
   1 C :   -0.398062
   2 O :    0.130208
   3 C :   -0.400564
   4 O :    0.128615
   5 O :    0.042068
   6 U :    0.700210
   7 O :   -0.122070
   8 O :   -0.125519

-------------------------------
LOEWDIN REDUCED ORBITAL CHARGES
-------------------------------
  0 O s       :     3.319372  s :     3.319372
      pz      :     1.513102  p :     4.527086
      px      :     1.434654
      py      :     1.579330
      dz2     :     0.014073  d :     0.100429
      dxz     :     0.022147
      dyz     :     0.016175
      dx2y2   :     0.027244
      dxy     :     0.020789
      f0      :     0.000911  f :     0.008001
      f+1     :     0.000987
      f-1     :     0.000538
      f+2     :     0.001564
      f-2     :     0.001179
      f+3     :     0.001417
      f-3     :     0.001406
  1 C s       :     2.753903  s :     2.753903
      pz      :     0.711062  p :     2.522833
      px      :     0.824195
      py      :     0.987576
      dz2     :     0.117225  d :     0.957331
      dxz     :     0.145926
      dyz     :     0.141956
      dx2y2   :     0.289308
      dxy     :     0.262915
      f0      :     0.011645  f :     0.163995
      f+1     :     0.016141
      f-1     :     0.014061
      f+2     :     0.020432
      f-2     :     0.024552
      f+3     :     0.026726
      f-3     :     0.050437
  2 O s       :     3.394690  s :     3.394690
      pz      :     1.335232  p :     4.370520
      px      :     1.520275
      py      :     1.515013
      dz2     :     0.013512  d :     0.095372
      dxz     :     0.009910
      dyz     :     0.020152
      dx2y2   :     0.025438
      dxy     :     0.026359
      f0      :     0.000924  f :     0.009210
      f+1     :     0.000585
      f-1     :     0.001251
      f+2     :     0.000993
      f-2     :     0.001307
      f+3     :     0.002188
      f-3     :     0.001962
  3 C s       :     2.753735  s :     2.753735
      pz      :     0.741589  p :     2.523664
      px      :     0.890100
      py      :     0.891975
      dz2     :     0.141631  d :     0.958896
      dxz     :     0.168208
      dyz     :     0.134578
      dx2y2   :     0.220897
      dxy     :     0.293583
      f0      :     0.010589  f :     0.164268
      f+1     :     0.020870
      f-1     :     0.013612
      f+2     :     0.022813
      f-2     :     0.028152
      f+3     :     0.028119
      f-3     :     0.040112
  4 O s       :     3.394844  s :     3.394844
      pz      :     1.330723  p :     4.371976
      px      :     1.433588
      py      :     1.607665
      dz2     :     0.014336  d :     0.095357
      dxz     :     0.027404
      dyz     :     0.010188
      dx2y2   :     0.023569
      dxy     :     0.019859
      f0      :     0.000922  f :     0.009207
      f+1     :     0.001532
      f-1     :     0.000406
      f+2     :     0.001976
      f-2     :     0.001311
      f+3     :     0.001557
      f-3     :     0.001504
  5 O s       :     3.320658  s :     3.320658
      pz      :     1.516228  p :     4.529859
      px      :     1.492272
      py      :     1.521359
      dz2     :     0.014124  d :     0.099465
      dxz     :     0.022169
      dyz     :     0.016746
      dx2y2   :     0.023622
      dxy     :     0.022804
      f0      :     0.000898  f :     0.007950
      f+1     :     0.000848
      f-1     :     0.000776
      f+2     :     0.001151
      f-2     :     0.001490
      f+3     :     0.001441
      f-3     :     0.001347
  6 U s       :    12.018106  s :    12.018106
      pz      :     9.821457  p :    29.697521
      px      :     9.890230
      py      :     9.985835
      dz2     :     6.526298  d :    32.383338
      dxz     :     6.677899
      dyz     :     6.439210
      dx2y2   :     6.399332
      dxy     :     6.340598
      f0      :     2.425911  f :    17.200824
      f+1     :     2.983584
      f-1     :     2.284415
      f+2     :     2.639624
      f-2     :     2.428983
      f+3     :     2.249589
      f-3     :     2.188718
  7 O s       :     3.547912  s :     3.547912
      pz      :     1.453803  p :     4.431094
      px      :     1.497390
      py      :     1.479901
      dz2     :     0.041772  d :     0.132487
      dxz     :     0.046233
      dyz     :     0.019742
      dx2y2   :     0.013074
      dxy     :     0.011665
      f0      :     0.001971  f :     0.010578
      f+1     :     0.003773
      f-1     :     0.001118
      f+2     :     0.001571
      f-2     :     0.001180
      f+3     :     0.000488
      f-3     :     0.000477
  8 O s       :     3.548981  s :     3.548981
      pz      :     1.493314  p :     4.433714
      px      :     1.462537
      py      :     1.477864
      dz2     :     0.024458  d :     0.132271
      dxz     :     0.052583
      dyz     :     0.018533
      dx2y2   :     0.020532
      dxy     :     0.016166
      f0      :     0.001279  f :     0.010553
      f+1     :     0.002797
      f-1     :     0.000789
      f+2     :     0.002426
      f-2     :     0.001644
      f+3     :     0.000816
      f-3     :     0.000802


                      *****************************
                      * MAYER POPULATION ANALYSIS *
                      *****************************

  NA   - Mulliken gross atomic population
  ZA   - Total nuclear charge
  QA   - Mulliken gross atomic charge
  VA   - Mayer's total valence
  BVA  - Mayer's bonded valence
  FA   - Mayer's free valence

  ATOM       NA         ZA         QA         VA         BVA        FA
  0 O      8.7015     8.0000    -0.7015     1.8371     1.3453     0.4918
  1 C      5.4805     6.0000     0.5195     4.0619     3.7051     0.3568
  2 O      8.4250     8.0000    -0.4250     2.2603     1.8068     0.4535
  3 C      5.4803     6.0000     0.5197     4.0698     3.7129     0.3569
  4 O      8.4259     8.0000    -0.4259     2.2592     1.8056     0.4535
  5 O      8.7053     8.0000    -0.7053     1.8416     1.3499     0.4917
  6 U     89.5098    92.0000     2.4902     4.1935     2.7018     1.4917
  7 O      8.6394     8.0000    -0.6394     1.7492     1.1510     0.5982
  8 O      8.6323     8.0000    -0.6323     1.7413     1.1449     0.5964

  Mayer bond orders larger than 0.1
B(  0-O ,  1-C ) :   1.0031 B(  0-O ,  6-U ) :   0.3362 B(  1-C ,  2-O ) :   1.8089 
B(  1-C ,  3-C ) :   0.9025 B(  3-C ,  4-O ) :   1.8075 B(  3-C ,  5-O ) :   1.0105 
B(  5-O ,  6-U ) :   0.3327 B(  6-U ,  7-O ) :   1.0022 B(  6-U ,  8-O ) :   0.9999 



                *******************************************
                * RELAXED MP2 DENSITY POPULATION ANALYSIS *
                *******************************************

------------------------------------------------------------------------------
                           ORCA POPULATION ANALYSIS
------------------------------------------------------------------------------
[...]
  FA   - Mayer's free valence

  ATOM       NA         ZA         QA         VA         BVA        FA
  0 O      8.6782     8.0000    -0.6782     1.8047     1.3179     0.4868
  1 C      5.4874     6.0000     0.5126     4.0764     3.7162     0.3602
  2 O      8.4238     8.0000    -0.4238     2.2627     1.8057     0.4570
  3 C      5.4903     6.0000     0.5097     4.0777     3.7171     0.3606
  4 O      8.4229     8.0000    -0.4229     2.2629     1.8059     0.4570
  5 O      8.6936     8.0000    -0.6936     1.8194     1.3313     0.4881
  6 U     89.5039    92.0000     2.4961     3.8556     2.3975     1.4582
  7 O      8.6499     8.0000    -0.6499     1.6544     1.0789     0.5756
  8 O      8.6500     8.0000    -0.6500     1.6542     1.0787     0.5755

  Mayer bond orders larger than 0.1
B(  0-O ,  1-C ) :   1.0230 B(  0-O ,  6-U ) :   0.2692 B(  1-C ,  2-O ) :   1.8076 
B(  1-C ,  3-C ) :   0.9044 B(  3-C ,  4-O ) :   1.8074 B(  3-C ,  5-O ) :   1.0184 
B(  5-O ,  6-U ) :   0.2854 B(  6-U ,  7-O ) :   0.9170 B(  6-U ,  8-O ) :   0.9168 



                *******************************************
                * RELAXED MP2 DENSITY POPULATION ANALYSIS *
                *******************************************

------------------------------------------------------------------------------
                           ORCA POPULATION ANALYSIS
------------------------------------------------------------------------------
Input electron density              ... /home/nikolayandreadi_2125/_scratch/MP2/UO2_C2O4.pmp2re
BaseName (.gbw .S,...)              ... /home/nikolayandreadi_2125/_scratch/MP2/UO2_C2O4

                    ********************************
                    * MULLIKEN POPULATION ANALYSIS *
                    ********************************

-----------------------
MULLIKEN ATOMIC CHARGES
-----------------------
   0 O :   -0.513885
   1 C :    0.353870
   2 O :   -0.310975
   3 C :    0.351146
   4 O :   -0.310358
   5 O :   -0.527065
   6 U :    1.865685
   7 O :   -0.454206
   8 O :   -0.454212
Sum of atomic charges:   -0.0000000

--------------------------------
MULLIKEN REDUCED ORBITAL CHARGES
--------------------------------
  0 O s       :     3.896767  s :     3.896767
      pz      :     1.539615  p :     4.554373
      px      :     1.440553
      py      :     1.574206
      dz2     :     0.010270  d :     0.058109
      dxz     :     0.011839
      dyz     :     0.010387
      dx2y2   :     0.013895
      dxy     :     0.011718
      f0      :     0.000598  f :     0.004637
      f+1     :     0.000777
      f-1     :     0.000491
      f+2     :     0.000787
      f-2     :     0.000686
      f+3     :     0.000652
      f-3     :     0.000647
  1 C s       :     3.070972  s :     3.070972
      pz      :     0.744057  p :     2.281802
      px      :     0.724619
      py      :     0.813126
      dz2     :     0.049444  d :     0.265009
      dxz     :     0.032817
      dyz     :     0.044962
      dx2y2   :     0.065960
      dxy     :     0.071825
      f0      :     0.001817  f :     0.028347
      f+1     :     0.003573
      f-1     :     0.003358
      f+2     :     0.003617
      f-2     :     0.004442
      f+3     :     0.004285
      f-3     :     0.007254
  2 O s       :     3.899165  s :     3.899165
      pz      :     1.393489  p :     4.347849
      px      :     1.543568
      py      :     1.410793
      dz2     :     0.009968  d :     0.059178
      dxz     :     0.007900
      dyz     :     0.014215
      dx2y2   :     0.013221
      dxy     :     0.013874
      f0      :     0.000492  f :     0.004783
      f+1     :     0.000401
      f-1     :     0.000797
      f+2     :     0.000671
      f-2     :     0.000695
      f+3     :     0.000839
      f-3     :     0.000889
  3 C s       :     3.072934  s :     3.072934
      pz      :     0.741491  p :     2.282976
      px      :     0.715077
      py      :     0.826408
      dz2     :     0.053573  d :     0.264690
      dxz     :     0.036871
      dyz     :     0.038959
      dx2y2   :     0.059065
      dxy     :     0.076222
      f0      :     0.001530  f :     0.028255
      f+1     :     0.004413
      f-1     :     0.002718
      f+2     :     0.003630
      f-2     :     0.005234
      f+3     :     0.004189
      f-3     :     0.006541
  4 O s       :     3.898949  s :     3.898949
      pz      :     1.327493  p :     4.347451
      px      :     1.310919
      py      :     1.709039
      dz2     :     0.012430  d :     0.059175
      dxz     :     0.013976
      dyz     :     0.008274
      dx2y2   :     0.012368
      dxy     :     0.012127
      f0      :     0.000495  f :     0.004783
      f+1     :     0.000944
      f-1     :     0.000395
      f+2     :     0.000776
      f-2     :     0.000680
      f+3     :     0.000749
      f-3     :     0.000744
  5 O s       :     3.897998  s :     3.897998
      pz      :     1.550095  p :     4.566927
      px      :     1.476400
      py      :     1.540432
      dz2     :     0.009724  d :     0.057573
      dxz     :     0.010302
      dyz     :     0.011801
      dx2y2   :     0.012533
      dxy     :     0.013213
      f0      :     0.000590  f :     0.004567
      f+1     :     0.000651
      f-1     :     0.000552
      f+2     :     0.000646
      f-2     :     0.000816
      f+3     :     0.000652
      f-3     :     0.000660
  6 U s       :    12.474968  s :    12.474968
      pz      :     9.751181  p :    29.556573
      px      :     9.855687
      py      :     9.949704
      dz2     :     6.390748  d :    31.656327
      dxz     :     6.321791
      dyz     :     6.401337
      dx2y2   :     6.264255
      dxy     :     6.278196
      f0      :     2.454236  f :    16.446448
      f+1     :     2.681153
      f-1     :     2.289105
      f+2     :     2.403981
      f-2     :     2.332332
      f+3     :     2.171001
      f-3     :     2.114641
  7 O s       :     4.023764  s :     4.023764
      pz      :     1.413488  p :     4.357857
      px      :     1.464765
      py      :     1.479604
      dz2     :     0.017391  d :     0.067003
      dxz     :     0.014738
      dyz     :     0.015707
      dx2y2   :     0.009462
      dxy     :     0.009705
      f0      :     0.001156  f :     0.005581
      f+1     :     0.001213
      f-1     :     0.000819
      f+2     :     0.000792
      f-2     :     0.000780
      f+3     :     0.000410
      f-3     :     0.000411
  8 O s       :     4.023766  s :     4.023766
      pz      :     1.429086  p :     4.357857
      px      :     1.449860
      py      :     1.478911
      dz2     :     0.017572  d :     0.067007
      dxz     :     0.013865
      dyz     :     0.015281
      dx2y2   :     0.009868
      dxy     :     0.010422
      f0      :     0.000961  f :     0.005582
      f+1     :     0.001209
      f-1     :     0.000678
      f+2     :     0.000922
      f-2     :     0.000865
      f+3     :     0.000475
      f-3     :     0.000470


                     *******************************
                     * LOEWDIN POPULATION ANALYSIS *
                     *******************************

----------------------
LOEWDIN ATOMIC CHARGES
----------------------
   0 O :    0.144635
   1 C :   -0.445851
   2 O :    0.179662
   3 C :   -0.445030
   4 O :    0.180005
   5 O :    0.134733
   6 U :    0.318000
   7 O :   -0.033065
   8 O :   -0.033088

-------------------------------
LOEWDIN REDUCED ORBITAL CHARGES
-------------------------------
  0 O s       :     3.317506  s :     3.317506
      pz      :     1.462955  p :     4.416700
      px      :     1.424757
      py      :     1.528988
      dz2     :     0.017313  d :     0.112353
      dxz     :     0.025478
      dyz     :     0.018772
      dx2y2   :     0.027765
      dxy     :     0.023025
      f0      :     0.000988  f :     0.008806
      f+1     :     0.001229
      f-1     :     0.000679
      f+2     :     0.001701
      f-2     :     0.001406
      f+3     :     0.001454
      f-3     :     0.001349
  1 C s       :     2.761990  s :     2.761990
      pz      :     0.778183  p :     2.582999
      px      :     0.825394
      py      :     0.979422
      dz2     :     0.140806  d :     0.948136
      dxz     :     0.152658
      dyz     :     0.152396
      dx2y2   :     0.260412
      dxy     :     0.241864
      f0      :     0.012156  f :     0.152726
      f+1     :     0.014511
      f-1     :     0.016943
      f+2     :     0.020265
      f-2     :     0.026482
      f+3     :     0.024063
      f-3     :     0.038307
  2 O s       :     3.402385  s :     3.402385
      pz      :     1.338712  p :     4.314113
      px      :     1.468263
      py      :     1.507138
      dz2     :     0.013935  d :     0.094661
      dxz     :     0.010722
      dyz     :     0.022308
      dx2y2   :     0.024175
      dxy     :     0.023520
      f0      :     0.000939  f :     0.009180
      f+1     :     0.000553
      f-1     :     0.001373
      f+2     :     0.001277
      f-2     :     0.001433
      f+3     :     0.001874
      f-3     :     0.001729
  3 C s       :     2.762990  s :     2.762990
      pz      :     0.796498  p :     2.583097
      px      :     0.894597
      py      :     0.892003
      dz2     :     0.143066  d :     0.946539
      dxz     :     0.166686
      dyz     :     0.147972
      dx2y2   :     0.206262
      dxy     :     0.282553
      f0      :     0.011571  f :     0.152404
      f+1     :     0.018538
      f-1     :     0.013767
      f+2     :     0.022246
      f-2     :     0.027187
      f+3     :     0.024404
      f-3     :     0.034690
  4 O s       :     3.402432  s :     3.402432
      pz      :     1.322984  p :     4.313722
      px      :     1.417504
      py      :     1.573234
      dz2     :     0.015211  d :     0.094661
      dxz     :     0.027911
      dyz     :     0.010906
      dx2y2   :     0.021737
      dxy     :     0.018895
      f0      :     0.000924  f :     0.009180
      f+1     :     0.001739
      f-1     :     0.000422
      f+2     :     0.001991
      f-2     :     0.001349
      f+3     :     0.001411
      f-3     :     0.001344
  5 O s       :     3.322634  s :     3.322634
      pz      :     1.473109  p :     4.423448
      px      :     1.464537
      py      :     1.485803
      dz2     :     0.016144  d :     0.110555
      dxz     :     0.026590
      dyz     :     0.018542
      dx2y2   :     0.026163
      dxy     :     0.023116
      f0      :     0.000972  f :     0.008630
      f+1     :     0.000956
      f-1     :     0.000859
      f+2     :     0.001386
      f-2     :     0.001599
      f+3     :     0.001470
      f-3     :     0.001388
  6 U s       :    12.026497  s :    12.026497
      pz      :     9.813444  p :    29.664804
      px      :     9.894273
      py      :     9.957087
      dz2     :     6.598815  d :    32.575164
      dxz     :     6.679483
      dyz     :     6.498499
      dx2y2   :     6.422825
      dxy     :     6.375543
      f0      :     2.598025  f :    17.415535
      f+1     :     2.971385
      f-1     :     2.379684
      f+2     :     2.580083
      f-2     :     2.440904
      f+3     :     2.258597
      f-3     :     2.186857
  7 O s       :     3.547779  s :     3.547779
      pz      :     1.499188  p :     4.329309
      px      :     1.428728
      py      :     1.401394
      dz2     :     0.047821  d :     0.144122
      dxz     :     0.047864
      dyz     :     0.023130
      dx2y2   :     0.013124
      dxy     :     0.012183
      f0      :     0.002438  f :     0.011855
      f+1     :     0.004036
      f-1     :     0.001452
      f+2     :     0.001611
      f-2     :     0.001347
      f+3     :     0.000486
      f-3     :     0.000485
  8 O s       :     3.547768  s :     3.547768
      pz      :     1.480842  p :     4.329325
      px      :     1.450710
      py      :     1.397774
      dz2     :     0.034660  d :     0.144138
      dxz     :     0.057548
      dyz     :     0.020886
      dx2y2   :     0.017676
      dxy     :     0.013368
      f0      :     0.001661  f :     0.011857
      f+1     :     0.003930
      f-1     :     0.001059
      f+2     :     0.002421
      f-2     :     0.001488
      f+3     :     0.000692
      f-3     :     0.000606


                      *****************************
                      * MAYER POPULATION ANALYSIS *
                      *****************************

  NA   - Mulliken gross atomic population
  ZA   - Total nuclear charge
  QA   - Mulliken gross atomic charge
  VA   - Mayer's total valence
  BVA  - Mayer's bonded valence
  FA   - Mayer's free valence

  ATOM       NA         ZA         QA         VA         BVA        FA
  0 O      8.5139     8.0000    -0.5139     1.9999     1.5421     0.4578
  1 C      5.6461     6.0000     0.3539     4.1592     3.8241     0.3351
  2 O      8.3110     8.0000    -0.3110     2.3987     1.9619     0.4367
  3 C      5.6489     6.0000     0.3511     4.1623     3.8267     0.3356
  4 O      8.3104     8.0000    -0.3104     2.3982     1.9615     0.4367
  5 O      8.5271     8.0000    -0.5271     2.0182     1.5592     0.4591
  6 U     90.1343    92.0000     1.8657     4.4635     3.2048     1.2587
  7 O      8.4542     8.0000    -0.4542     1.8048     1.2869     0.5179
  8 O      8.4542     8.0000    -0.4542     1.8046     1.2867     0.5179

  Mayer bond orders larger than 0.1
B(  0-O ,  1-C ) :   1.0425 B(  0-O ,  6-U ) :   0.4269 B(  1-C ,  2-O ) :   1.9067 
B(  1-C ,  3-C ) :   0.8591 B(  3-C ,  4-O ) :   1.9057 B(  3-C ,  5-O ) :   1.0412 
B(  5-O ,  6-U ) :   0.4456 B(  6-U ,  7-O ) :   1.1259 B(  6-U ,  8-O ) :   1.1257 



----------------------------------
MP2 DERIVATIVE INTEGRAL GENERATION
----------------------------------


Input Wavefunction Amplitudes       ... /home/nikolayandreadi_2125/_scratch/MP2/UO2_C2O4.mp2tsaa.tmp.proc19
Input Correlated Electron Density   ... /home/nikolayandreadi_2125/_scratch/MP2/UO2_C2O4.pmp2re
Input Energy Weighted Density       ... /home/nikolayandreadi_2125/_scratch/MP2/UO2_C2O4.wmp2.tmp
Input SCF Electron Density          ... /home/nikolayandreadi_2125/_scratch/MP2/UO2_C2O4.scfp.tmp

One-Electron Terms    ...
                        ... One-Electron Terms done
Prescreening matrices              ... done

Batch handling in the gradient evaluation:
Memory available                      ... 31500.0 MB
Memory per occupied orbital in Q2     ...   44.7 MB
Memory per occupied orbital in Q3     ...    0.2 MB
Total memory requirement per |i>      ...   44.8 MB
Max. Number of orbitals possible      ...    702
Number of orbitals treated per batch  ...     34
Number of batches to be done          ...      1
Batch   0: i=   42 ...    75

---------------------------------------
MP2 TOTAL ENERGY:   -28477.276144037 Eh
---------------------------------------

-----------------------------------
NORM OF THE MP2 GRADIENT:  0.000170
-----------------------------------

-------------------------   --------------------
FINAL SINGLE POINT ENERGY    -28477.276144037110
-------------------------   --------------------

                                *** OPTIMIZATION RUN DONE ***

                            ***************************************
                            *     ORCA property calculations      *
                            ***************************************

                                    ---------------------
                                    Active property flags
                                    ---------------------
   (+) Dipole Moment


------------------------------------------------------------------------------
                       ORCA ELECTRIC PROPERTIES CALCULATION
------------------------------------------------------------------------------

Dipole Moment Calculation                       ... on
Quadrupole Moment Calculation                   ... off
Polarizability Calculation                      ... off
GBWName                                         ... /home/nikolayandreadi_2125/_scratch/MP2/UO2_C2O4.gbw
Electron density file                           ... /home/nikolayandreadi_2125/_scratch/MP2/UO2_C2O4.scfp.tmp
The origin for moment calculation is the CENTER OF MASS  = (-3.779109,  0.810617  2.232342)

-------------
DIPOLE MOMENT
-------------
                                X             Y             Z
Electronic contribution:    -28.68894      17.89800      20.57181
Nuclear contribution   :     25.50806     -15.81869     -18.27996
                        -----------------------------------------
Total Dipole Moment    :     -3.18089       2.07932       2.29184
                        -----------------------------------------
Magnitude (a.u.)       :      4.43781
Magnitude (Debye)      :     11.28001


                         *** MP2 UNRELAXED DENSITY ***

------------------------------------------------------------------------------
                       ORCA ELECTRIC PROPERTIES CALCULATION
------------------------------------------------------------------------------

Dipole Moment Calculation                       ... on
Quadrupole Moment Calculation                   ... off
Polarizability Calculation                      ... off
GBWName                                         ... /home/nikolayandreadi_2125/_scratch/MP2/UO2_C2O4.gbw
Electron density file                           ... /home/nikolayandreadi_2125/_scratch/MP2/UO2_C2O4.pmp2ur
The origin for moment calculation is the CENTER OF MASS  = (-3.779109,  0.810617  2.232342)

-------------
DIPOLE MOMENT
-------------
                                X             Y             Z
Electronic contribution:    -28.58964      17.81894      20.49863
Nuclear contribution   :     25.50806     -15.81869     -18.27996
                        -----------------------------------------
Total Dipole Moment    :     -3.08158       2.00026       2.21867
                        -----------------------------------------
Magnitude (a.u.)       :      4.29181
Magnitude (Debye)      :     10.90892


                           *** MP2 RELAXED DENSITY ***

------------------------------------------------------------------------------
                       ORCA ELECTRIC PROPERTIES CALCULATION
------------------------------------------------------------------------------

Dipole Moment Calculation                       ... on
Quadrupole Moment Calculation                   ... off
Polarizability Calculation                      ... off
GBWName                                         ... /home/nikolayandreadi_2125/_scratch/MP2/UO2_C2O4.gbw
Electron density file                           ... /home/nikolayandreadi_2125/_scratch/MP2/UO2_C2O4.pmp2re
The origin for moment calculation is the CENTER OF MASS  = (-3.779109,  0.810617  2.232342)

-------------
DIPOLE MOMENT
-------------
                                X             Y             Z
Electronic contribution:    -28.20393      17.54831      20.21857
Nuclear contribution   :     25.50806     -15.81869     -18.27996
                        -----------------------------------------
Total Dipole Moment    :     -2.69587       1.72962       1.93861
                        -----------------------------------------
Magnitude (a.u.)       :      3.74400
Magnitude (Debye)      :      9.51649


Timings for individual modules:

Sum of individual times         ...    13226.698 sec (= 220.445 min)
GTO integral calculation        ...       47.430 sec (=   0.791 min)   0.4 %
Relativistic integrals          ...       16.779 sec (=   0.280 min)   0.1 %
SCF iterations                  ...     2310.374 sec (=  38.506 min)  17.5 %
MP2 module                      ...    10850.532 sec (= 180.842 min)  82.0 %
Geometry relaxation             ...        1.583 sec (=   0.026 min)   0.0 %
                             ****ORCA TERMINATED NORMALLY****
TOTAL RUN TIME: 0 days 3 hours 40 minutes 31 seconds 619 msec
