
                                 *****************
                                 * O   R   C   A *
                                 *****************

           --- An Ab Initio, DFT and Semiempirical electronic structure package ---

                  #######################################################
                  #                        -***-                        #
                  #  Department of molecular theory and spectroscopy    #
                  #              Directorship: Frank Neese              #
                  # Max Planck Institute for Chemical Energy Conversion #
                  #                  D-45470 Muelheim/Ruhr              #
                  #                       Germany                       #
                  #                                                     #
                  #                  All rights reserved                #
                  #                        -***-                        #
                  #######################################################


                         Program Version 4.0.1.2 - RELEASE -


 With contributions from (in alphabetic order):
   Daniel Aravena         : Magnetic Properties
   Michael Atanasov       : Ab Initio Ligand Field Theory
   Ute Becker             : Parallelization
   Martin Brehm           : Molecular dynamics
   Dmytro Bykov           : SCF Hessian
   Vijay G. Chilkuri      : MRCI spin determinant printing
   Dipayan Datta          : RHF DLPNO-CCSD density
   Achintya Kumar Dutta   : EOM-CC, STEOM-CC
   Dmitry Ganyushin       : Spin-Orbit,Spin-Spin,Magnetic field MRCI
   Yang Guo               : DLPNO-NEVPT2, CIM, IAO-localization
   Andreas Hansen         : Spin unrestricted coupled pair/coupled cluster methods
   Lee Huntington         : MR-EOM, pCC
   Robert Izsak           : Overlap fitted RIJCOSX, COSX-SCS-MP3, EOM
   Christian Kollmar      : KDIIS, OOCD, Brueckner-CCSD(T), CCSD density
   Simone Kossmann        : Meta GGA functionals, TD-DFT gradient, OOMP2, MP2 Hessian
   Martin Krupicka        : AUTO-CI
   Dagmar Lenk            : GEPOL surface
   Dimitrios Liakos       : Extrapolation schemes; parallel MDCI
   Dimitrios Manganas     : ROCIS; embedding schemes
   Dimitrios Pantazis     : SARC Basis sets
   Taras Petrenko         : DFT Hessian,TD-DFT gradient, ASA, ECA, R-Raman, ABS, FL, XAS/XES, NRVS
   Peter Pinski           : DLPNO-MP2
   Christoph Reimann      : Effective Core Potentials
   Marius Retegan         : Local ZFS, SOC
   Christoph Riplinger    : Optimizer, TS searches, QM/MM, DLPNO-CCSD(T), (RO)-DLPNO pert. Triples
   Tobias Risthaus        : Range-separated hybrids, TD-DFT gradient, RPA, STAB
   Michael Roemelt        : Restricted open shell CIS
   Masaaki Saitow         : Open-shell DLPNO
   Barbara Sandhoefer     : DKH picture change effects
   Kantharuban Sivalingam : CASSCF convergence, NEVPT2, FIC-MRCI
   Georgi Stoychev        : AutoAux
   Boris Wezisla          : Elementary symmetry handling
   Frank Wennmohs         : Technical directorship


 We gratefully acknowledge several colleagues who have allowed us to
 interface, adapt or use parts of their codes:
   Stefan Grimme, W. Hujo, H. Kruse,             : VdW corrections, initial TS optimization,
                  C. Bannwarth                     DFT functionals, gCP, sTDA/sTD-DF
   Ed Valeev                                     : LibInt (2-el integral package), F12 methods
   Garnet Chan, S. Sharma, J. Yang, R. Olivares  : DMRG
   Ulf Ekstrom                                   : XCFun DFT Library
   Mihaly Kallay                                 : mrcc  (arbitrary order and MRCC methods)
   Andreas Klamt, Michael Diedenhofen            : otool_cosmo (COSMO solvation model)
   Jiri Pittner, Ondrej Demel                    : Mk-CCSD
   Frank Weinhold                                : gennbo (NPA and NBO analysis)
   Christopher J. Cramer and Donald G. Truhlar   : smd solvation model


 Your calculation uses the libint2 library for the computation of 2-el integrals
 For citations please refer to: http://libint.valeyev.net

 This ORCA versions uses:
   CBLAS   interface :  Fast vector & matrix operations
   LAPACKE interface :  Fast linear algebra routines
   SCALAPACK package :  Parallel linear algebra routines


Your calculation utilizes the basis: DKH-def2-TZVP
   Exponents from def2-TZVP [F. Weigend and R. Ahlrichs, Phys. Chem. Chem. Phys. 7, 3297 (2005)],
   recontracted for DKH2 by D. A. Pantazis.

Your calculation utilizes the auxiliary basis: SARC/J 
   decontracted def2/J up to Kr:
   F. Weigend, Phys. Chem. Chem. Phys. 8, 1057 (2006)
   and SARC auxiliary basis sets beyond Kr:
   D. A. Pantazis and F. Neese, J. Chem. Theory Comput. 5, 2229 (2009).
   D. A. Pantazis, X. Y. Chen, C. R. Landis and F. Neese, J. Chem. Theory Comput. 4, 908 (2008).
   D. A. Pantazis and F. Neese, Theor. Chem. Acc. 131, 1292 (2012).
   D. A. Pantazis and F. Neese, J. Chem. Theory Comput. 7, 677 (2011).

================================================================================
                                        WARNINGS
                       Please study these warnings very carefully!
================================================================================

Warning: TCutStore was < 0. Adjusted to Thresh (uncritical)

WARNING: In scalar relativistic gradient/hessian runs we need the one-center approximation
  ===> : %rel OneCenter is turned on

WARNING: The frozen-core approximation for MP2-gradient calculations is turned on by default.

WARNING: Geometry Optimization
  ===> : Switching off AutoStart
         For restart on a previous wavefunction, please use MOREAD

WARNING: Post HF methods need fully converged wavefunctions
  ===> : Setting SCFConvForced true
         You can overwrite this default with %scf ConvForced false 


INFO   : the flag for use of LIBINT has been found!

================================================================================
                                       INPUT FILE
================================================================================
NAME = /home/nikolayandreadi_2125/_scratch/MP2/UO2_CO3.inp
|  1> !Opt MP2 DKH-def2-TZVP DKH SARC/J SlowConv
|  2> 
|  3> %pal
|  4> nproc 42
|  5> end
|  6> 
|  7> %maxcore 13500
|  8> 
|  9> %basis
| 10> newgto U "SARC-DKH-TZVP" end
| 11> end
| 12> 
| 13> %scf
| 14> MaxIter 5000
| 15> end
| 16> 
| 17> %method
| 18> Z_MaxIter 5000
| 19> end
| 20> 
| 21> %geom
| 22>     MaxIter 200
| 23> end
| 24> 
| 25> * xyz 0 1
| 26>   U     -2.881570   -0.000307    0.076172
| 27>   O     -1.034102   -1.084063    0.003227
| 28>   C     -0.227686   -0.000016   -0.005311
| 29>   O     -1.034323    1.083901    0.003172
| 30>   O      0.962500    0.000107   -0.014295
| 31>   O     -3.147080    0.000206   -1.657912
| 32>   O     -3.021868    0.000172    1.824907
| 33> **                         ****END OF INPUT****
================================================================================

                       *****************************
                       * Geometry Optimization Run *
                       *****************************

Geometry optimization settings:
Update method            Update   .... BFGS
Choice of coordinates    CoordSys .... Redundant Internals
Initial Hessian          InHess   .... Almoef's Model

Convergence Tolerances:
Energy Change            TolE     ....  5.0000e-06 Eh
Max. Gradient            TolMAXG  ....  3.0000e-04 Eh/bohr
RMS Gradient             TolRMSG  ....  1.0000e-04 Eh/bohr
Max. Displacement        TolMAXD  ....  4.0000e-03 bohr
RMS Displacement         TolRMSD  ....  2.0000e-03 bohr

------------------------------------------------------------------------------
                        ORCA OPTIMIZATION COORDINATE SETUP
------------------------------------------------------------------------------

The optimization will be done in new redundant internal coordinates
Making redundant internal coordinates   ...  (new redundants) done
Evaluating the initial hessian          ...  (Almloef) done
Evaluating the coordinates              ...  done
Calculating the B-matrix                .... done
Calculating the G-matrix                .... done
Diagonalizing the G-matrix              .... done
The first mode is                       ....   13
The number of degrees of freedom        ....   15

    -----------------------------------------------------------------
                    Redundant Internal Coordinates


    -----------------------------------------------------------------
         Definition                    Initial Value    Approx d2E/dq
    -----------------------------------------------------------------
      1. B(O   1,U   0)                  2.1431         0.118251   
      2. B(C   2,O   1)                  1.3511         0.645504   
      3. B(O   3,U   0)                  2.1432         0.118234   
      4. B(O   3,C   2)                  1.3512         0.645439   
      5. B(O   4,C   2)                  1.1902         1.165767   
      6. B(O   5,U   0)                  1.7543         0.493360   
      7. B(O   6,U   0)                  1.7544         0.493249   
      8. A(O   3,U   0,O   5)           95.5454         0.350510   
      9. A(O   1,U   0,O   6)           95.9122         0.350506   
     10. A(O   1,U   0,O   3)           60.7677         0.278269   
     11. A(O   5,U   0,O   6)          166.7079         0.450320   
     12. A(O   3,U   0,O   6)           95.8972         0.350497   
     13. A(O   1,U   0,O   5)           95.5649         0.350519   
     14. A(U   0,O   1,C   2)           96.2574         0.344783   
     15. A(O   3,C   2,O   4)          126.6516         0.484134   
     16. A(O   1,C   2,O   3)          106.6955         0.434653   
     17. A(O   1,C   2,O   4)          126.6526         0.484143   
     18. A(U   0,O   3,C   2)           96.2547         0.344769   
     19. D(C   2,O   1,U   0,O   6)    -92.4684         0.001693   
     20. D(C   2,O   1,U   0,O   3)      0.9953         0.001693   
     21. D(C   2,O   1,U   0,O   5)     94.2478         0.001693   
     22. D(O   4,C   2,O   1,U   0)    178.3471         0.030760   
     23. D(O   3,C   2,O   1,U   0)     -1.4384         0.030760   
     24. D(C   2,O   3,U   0,O   5)    -94.2810         0.001693   
     25. D(C   2,O   3,U   0,O   1)     -0.9953         0.001693   
     26. D(U   0,O   3,C   2,O   4)   -178.3472         0.030753   
     27. D(U   0,O   3,C   2,O   1)      1.4384         0.030753   
     28. D(C   2,O   3,U   0,O   6)     92.4940         0.001693   
    -----------------------------------------------------------------

Number of atoms                         .... 7
Number of degrees of freedom            .... 28

         *************************************************************
         *                GEOMETRY OPTIMIZATION CYCLE   1            *
         *************************************************************
---------------------------------
CARTESIAN COORDINATES (ANGSTROEM)
---------------------------------
  U     -2.881570   -0.000307    0.076172
  O     -1.034102   -1.084063    0.003227
  C     -0.227686   -0.000016   -0.005311
  O     -1.034323    1.083901    0.003172
  O      0.962500    0.000107   -0.014295
  O     -3.147080    0.000206   -1.657912
  O     -3.021868    0.000172    1.824907

----------------------------
CARTESIAN COORDINATES (A.U.)
----------------------------
  NO LB      ZA    FRAG     MASS         X           Y           Z
   0 U    92.0000    0   238.029   -5.445378   -0.000580    0.143944
   1 O     8.0000    0    15.999   -1.954170   -2.048582    0.006098
   2 C     6.0000    0    12.011   -0.430264   -0.000030   -0.010036
   3 O     8.0000    0    15.999   -1.954587    2.048276    0.005994
   4 O     8.0000    0    15.999    1.818861    0.000202   -0.027014
   5 O     8.0000    0    15.999   -5.947119    0.000389   -3.133000
   6 O     8.0000    0    15.999   -5.710503    0.000325    3.448574

--------------------------------
INTERNAL COORDINATES (ANGSTROEM)
--------------------------------
 U      0   0   0     0.000000000000     0.00000000     0.00000000
 O      1   0   0     2.143125300020     0.00000000     0.00000000
 C      2   1   0     1.351124554106    96.25736531     0.00000000
 O      3   2   1     1.351151832307   106.69546338   358.56161290
 O      3   2   1     1.190219913285   126.65259793   178.34711915
 O      1   2   3     1.754292775544    95.56485869    94.24778835
 O      1   2   3     1.754353971828    95.91221401   267.53162457

---------------------------
INTERNAL COORDINATES (A.U.)
---------------------------
 U      0   0   0     0.000000000000     0.00000000     0.00000000
 O      1   0   0     4.049919887715     0.00000000     0.00000000
 C      2   1   0     2.553255380077    96.25736531     0.00000000
 O      3   2   1     2.553306928406   106.69546338   358.56161290
 O      3   2   1     2.249189675249   126.65259793   178.34711915
 O      1   2   3     3.315132904494    95.56485869    94.24778835
 O      1   2   3     3.315248548713    95.91221401   267.53162457

---------------------
BASIS SET INFORMATION
---------------------
There are 3 groups of distinct atoms

 Group   1 Type U   : 29s20p16d12f contracted to 21s13p10d7f pattern {911111111111111111111/8111111111111/7111111111/6111111}
 Group   2 Type O   : 11s6p2d1f contracted to 6s3p2d1f pattern {611111/411/11/1}
 Group   3 Type C   : 11s6p2d1f contracted to 6s3p2d1f pattern {611111/411/11/1}

Atom   0U    basis set group =>   1
Atom   1O    basis set group =>   2
Atom   2C    basis set group =>   3
Atom   3O    basis set group =>   2
Atom   4O    basis set group =>   2
Atom   5O    basis set group =>   2
Atom   6O    basis set group =>   2

INFORMATION: There is an auxiliary basis set but the global RI flag is NOT set

-------------------------------
AUXILIARY BASIS SET INFORMATION
-------------------------------
There are 3 groups of distinct atoms

 Group   1 Type U   : 33s10p8d6f4g2h1i contracted to 33s10p8d6f4g2h1i pattern {111111111111111111111111111111111/1111111111/11111111/111111/1111/11/1}
 Group   2 Type O   : 12s5p4d2f1g contracted to 12s5p4d2f1g pattern {111111111111/11111/1111/11/1}
 Group   3 Type C   : 12s5p4d2f1g contracted to 12s5p4d2f1g pattern {111111111111/11111/1111/11/1}

Atom   0U    basis set group =>   1
Atom   1O    basis set group =>   2
Atom   2C    basis set group =>   3
Atom   3O    basis set group =>   2
Atom   4O    basis set group =>   2
Atom   5O    basis set group =>   2
Atom   6O    basis set group =>   2


           ************************************************************
           *        Program running with 42 parallel MPI-processes    *
           *              working on a common directory               *
           ************************************************************
------------------------------------------------------------------------------
                           ORCA GTO INTEGRAL CALCULATION
------------------------------------------------------------------------------

                         BASIS SET STATISTICS AND STARTUP INFO

 # of primitive gaussian shells          ...  197
 # of primitive gaussian functions       ...  529
 # of contracted shells                  ...  123
 # of contracted basis functions         ...  351
 Highest angular momentum                ...    3
 Maximum contraction depth               ...    9
 Integral package used                   ... LIBINT
 Integral threshhold            Thresh   ...  2.500e-11
 Primitive cut-off              TCut     ...  2.500e-12


------------------------------ INTEGRAL EVALUATION ----------------------------


 * One electron integrals 
 Pre-screening matrix                    ... done
 Shell pair data                         ... done (   0.002 sec)

------------------------------------------------------------------------------
                          ORCA RELATIVISTIC HAMILTONIAN
------------------------------------------------------------------------------

Relativistic Method            ... DKH
Order of DKH treatment         ...   2
Treatment of potential         ... V(e,N)
Eps parameter for DKH          ...   0.00000000010000
Nucleus model                  ... Point Nucleus
Speed of light used            ... 137.03598950000000


            ************************************************
            *        DOUGLAS-KROLL-HESS HAMILTONIAN        *
            *   Programmed by FN according to literature   *
            *        procedures. Special thanks to         *
            *       B.A. Hess, M. Reiher and A. Wolf       *
            *     University Erlangen-Nuernberg/Bonn       *
            ************************************************

Uncontracting the basis (first version)        ... done
Number of contracted basis functions           ...  351
Number of uncontracted basis functions         ...  529
Initializing the DKH file                      ... done
One center approximation for DKH is active
Finding unique atoms                      ... 3 atom types
 ATOMIC NUMBER  92
          ... doing integrals          ... Computing the DKH transformation
          ... Transforming V and pVp to p**2 space
          ... First transformation of V and pVp
          ... Second transformation of Veff
          ... Adding kinetic energy
          ... Back transformation of Veff to r-space
          ... Recontracting the H-matrix
          ... Computing the DKH correction to the H-matrix
          ... adding submatrics to 1 actual atoms
 ATOMIC NUMBER   8
          ... doing integrals          ... Computing the DKH transformation
          ... Transforming V and pVp to p**2 space
          ... First transformation of V and pVp
          ... Second transformation of Veff
          ... Adding kinetic energy
          ... Back transformation of Veff to r-space
          ... Recontracting the H-matrix
          ... Computing the DKH correction to the H-matrix
          ... adding submatrics to 5 actual atoms
 ATOMIC NUMBER   6
          ... doing integrals          ... Computing the DKH transformation
          ... Transforming V and pVp to p**2 space
          ... First transformation of V and pVp
          ... Second transformation of Veff
          ... Adding kinetic energy
          ... Back transformation of Veff to r-space
          ... Recontracting the H-matrix
          ... Computing the DKH correction to the H-matrix
          ... adding submatrics to 1 actual atoms
Storing DKH matrices                           ... done
Getting S**(-1/2)                              ... done
Reading the original H-matrix                  ... done
Adding DKH correction to the H-matrix          ... done
Storing the new modified H-matrix              ... done


           ************************************************************
           *        Program running with 42 parallel MPI-processes    *
           *              working on a common directory               *
           ************************************************************
-------------------------------------------------------------------------------
                                 ORCA SCF
-------------------------------------------------------------------------------

------------
SCF SETTINGS
------------
Hamiltonian:
 Ab initio Hamiltonian  Method          .... Hartree-Fock(GTOs)

Relativistic Settings:
 Scalar relativistic method             .... Douglas-Kroll-Hess
 Order of DKH procedure    Order        ....    2
 Mode of DKH-treatment                  .... V=V(e,N)
 Speed of light used       Velit        ....       137.035989
 Cutoff-constant           Eps          ....            1e-10 


General Settings:
 Integral files         IntName         .... /home/nikolayandreadi_2125/_scratch/MP2/UO2_CO3
 Hartree-Fock type      HFTyp           .... RHF
 Total Charge           Charge          ....    0
 Multiplicity           Mult            ....    1
 Number of Electrons    NEL             ....  138
 Basis Dimension        Dim             ....  351
 Nuclear Repulsion      ENuc            ....   1210.1016478502 Eh

Convergence Acceleration:
 DIIS                   CNVDIIS         .... on
   Start iteration      DIISMaxIt       ....     0
   Startup error        DIISStart       ....  0.200000
   # of expansion vecs  DIISMaxEq       ....     5
   Bias factor          DIISBfac        ....   1.050
   Max. coefficient     DIISMaxC        ....  10.000
 Newton-Raphson         CNVNR           .... off
 SOSCF                  CNVSOSCF        .... off
 Level Shifting         CNVShift        .... on
   Level shift para.    LevelShift      ....    0.2500
   Turn off err/grad.   ShiftErr        ....    0.0000
 Zerner damping         CNVZerner       .... off
 Static damping         CNVDamp         .... on
   Fraction old density DampFac         ....    0.8500
   Max. Damping (<1)    DampMax         ....    0.9800
   Min. Damping (>=0)   DampMin         ....    0.0000
   Turn off err/grad.   DampErr         ....    0.0300
 Fernandez-Rico         CNVRico         .... off

SCF Procedure:
 Maximum # iterations   MaxIter         ....  5000
 SCF integral mode      SCFMode         .... Direct
   Integral package                     .... LIBINT
 Reset frequeny         DirectResetFreq ....    20
 Integral Threshold     Thresh          ....  2.500e-11 Eh
 Primitive CutOff       TCut            ....  2.500e-12 Eh

Convergence Tolerance:
 Convergence Check Mode ConvCheckMode   .... Total+1el-Energy
 Convergence forced     ConvForced      .... 1
 Energy Change          TolE            ....  1.000e-08 Eh
 1-El. energy change                    ....  1.000e-05 Eh
 DIIS Error             TolErr          ....  5.000e-07


Diagonalization of the overlap matrix:
Smallest eigenvalue                        ... 3.554e-04
Time for diagonalization                   ...    0.027 sec
Threshold for overlap eigenvalues          ... 1.000e-08
Number of eigenvalues below threshold      ... 0
Time for construction of square roots      ...    0.017 sec
Total time needed                          ...    0.044 sec

-------------------
DFT GRID GENERATION
-------------------

General Integration Accuracy     IntAcc      ...  4.340
Radial Grid Type                 RadialGrid  ... Gauss-Chebyshev
Angular Grid (max. acc.)         AngularGrid ... Lebedev-110
Angular grid pruning method      GridPruning ... 3 (G Style)
Weight generation scheme         WeightScheme... Becke
Basis function cutoff            BFCut       ...    1.0000e-11
Integration weight cutoff        WCut        ...    1.0000e-14
Grids for H and He will be reduced by one unit

# of grid points (after initial pruning)     ...  14180 (   0.0 sec)
# of grid points (after weights+screening)   ...  13709 (   0.0 sec)
nearest neighbour list constructed           ...    0.0 sec
Grid point re-assignment to atoms done       ...    0.0 sec
Grid point division into batches done        ...    0.0 sec
Reduced shell lists constructed in    0.0 sec

Total number of grid points                  ...    13709
Total number of batches                      ...      217
Average number of points per batch           ...       63
Average number of grid points per atom       ...     1958
Average number of shells per batch           ...    50.86 (41.35%)
Average number of basis functions per batch  ...   161.14 (45.91%)
Average number of large shells per batch     ...    38.00 (74.72%)
Average number of large basis fcns per batch ...   118.57 (73.58%)
Maximum spatial batch extension              ...   9.49, 14.88,  3.07 au
Average spatial batch extension              ...   0.15,  0.20,  0.08 au

Time for grid setup =    0.100 sec

------------------------------
INITIAL GUESS: MODEL POTENTIAL
------------------------------
Loading DKH relativistic densities                 ... done
Calculating cut-offs                               ... done
Setting up the integral package                    ... done
Initializing the effective Hamiltonian             ... done
Starting the Coulomb interaction                   ... done (   0.0 sec)
Reading the grid                                   ... done
Mapping shells                                     ... done
Starting the XC term evaluation                    ... done (   0.0 sec)
Transforming the Hamiltonian                       ... done (   0.0 sec)
Diagonalizing the Hamiltonian                      ... done (   0.0 sec)
Back transforming the eigenvectors                 ... done (   0.0 sec)
Now organizing SCF variables                       ... done
                      ------------------
                      INITIAL GUESS DONE (   0.3 sec)
                      ------------------
--------------
SCF ITERATIONS
--------------
ITER       Energy         Delta-E        Max-DP      RMS-DP      [F,P]     Damp
               ***  Starting incremental Fock matrix formation  ***
  0 -28360.7019190468   0.000000000000 0.12047126  0.00123586  8.0208879 0.8500
  1 -28360.9679846553  -0.266065608474 0.07233379  0.00093996  6.8234130 0.8500
                               ***Turning on DIIS***
  2 -28361.1173190979  -0.149334442638 0.04542233  0.00063996  5.8045641 0.8500
  3 -28353.6348184374   7.482500660539 0.03487442  0.00042294  4.9377192 0.8500
  4 -28355.9314870402  -2.296668602834 0.03603333  0.00037971  4.1991436 0.8500
  5 -28359.4256661413  -3.494179101013 0.03588994  0.00035663  3.5701139 0.8500
  6 -28360.2979578276  -0.872291686370 0.03169597  0.00032318  3.0349821 0.8500
  7 -28361.5914261593  -1.293468331663 0.02754138  0.00029411  2.5799268 0.8500
  8 -28360.4663113679   1.125114791401 0.02197256  0.00024088  2.1931162 0.8500
  9 -28360.1120127565   0.354298611346 0.01815367  0.00020048  1.8642728 0.8500
 10 -28360.5150236899  -0.403010933347 0.01572435  0.00017337  1.5847301 0.8500
 11 -28360.9495926218  -0.434568931865 0.01369471  0.00015194  1.3471114 0.8500
 12 -28361.1943025232  -0.244709901446 0.01176434  0.00013227  1.1451275 0.8500
 13 -28361.1877142550   0.006588268167 0.00990348  0.00011301  0.9734299 0.8500
 14 -28361.1810360681   0.006678186921 0.00833783  0.00009630  0.8274730 0.8500
 15 -28361.2594655253  -0.078429457208 0.00709840  0.00008277  0.7033990 0.8500
 16 -28361.3630543909  -0.103588865572 0.00607523  0.00007158  0.5979295 0.8500
 17 -28361.4374446705  -0.074390279642 0.00518317  0.00006188  0.5082753 0.8500
 18 -28361.4753686994  -0.037924028838 0.00439744  0.00005331  0.4320642 0.8500
 19 -28361.5025704098  -0.027201710382 0.00372577  0.00004589  0.3672799 0.8500
               *** Restarting incremental Fock matrix formation ***
                                   *** Resetting DIIS ***
 20 -28361.7094095285  -0.206839118702 0.00294097  0.00003488  0.3122092 0.8500
 21 -28361.5924232377   0.116986290763 0.00247795  0.00002926  0.2655792 0.8500
 22 -28361.5820085344   0.010414703291 0.00224859  0.00002664  0.2258564 0.8500
 23 -28361.6432637372  -0.061255202756 0.00202949  0.00002458  0.1920227 0.8500
 24 -28361.6685482685  -0.025284531352 0.00175737  0.00002224  0.1632382 0.8500
 25 -28361.6949629023  -0.026414633790 0.00149171  0.00001992  0.1387614 0.8500
 26 -28361.6836533401   0.011309562171 0.00123884  0.00001757  0.1179554 0.8500
 27 -28361.6761575190   0.007495821144 0.00103548  0.00001547  0.1002687 0.8500
 28 -28361.6841057596  -0.007948240614 0.00087996  0.00001370  0.0852337 0.8500
 29 -28361.6959022044  -0.011796444771 0.00075159  0.00001217  0.0724532 0.8500
 30 -28361.7049514659  -0.009049261491 0.00063927  0.00001081  0.0615892 0.8500
 31 -28361.7086480141  -0.003696548210 0.00053925  0.00000958  0.0523543 0.8500
 32 -28361.7108279296  -0.002179915562 0.00045362  0.00000848  0.0445040 0.8500
 33 -28361.7141446763  -0.003316746643 0.00038265  0.00000752  0.0378308 0.8500
 34 -28361.7181447661  -0.004000089833 0.00032358  0.00000667  0.0321582 0.8500
 35 -28361.7216817583  -0.003536992219 0.00190331  0.00003946  0.0273361 0.0000
 36 -28361.7438247794  -0.022143021062 0.00035742  0.00000409  0.0004490 0.0000
 37 -28361.7435996740   0.000225105410 0.00047497  0.00000556  0.0003524 0.0000
 38 -28361.7419957352   0.001603938832 0.00035488  0.00000374  0.0001363 0.0000
 39 -28361.7394804789   0.002515256219 0.00009739  0.00000164  0.0001152 0.0000
               *** Restarting incremental Fock matrix formation ***
                                   *** Resetting DIIS ***
 40 -28361.7438756962  -0.004395217224 0.00001637  0.00000036  0.0000242 0.0000
 41 -28361.7438356504   0.000040045798 0.00001361  0.00000025  0.0000226 0.0000
 42 -28361.7440504970  -0.000214846594 0.00002243  0.00000031  0.0000144 0.0000
 43 -28361.7436899577   0.000360539289 0.00001226  0.00000020  0.0000104 0.0000
 44 -28361.7439199944  -0.000230036763 0.00000848  0.00000011  0.0000061 0.0000
 45 -28361.7438287791   0.000091215359 0.00000257  0.00000005  0.0000038 0.0000
 46 -28361.7438631515  -0.000034372468 0.00000148  0.00000002  0.0000024 0.0000
 47 -28361.7438745764  -0.000011424829 0.00000109  0.00000002  0.0000015 0.0000
                            ***DIIS convergence achieved***

               *****************************************************
               *                     SUCCESS                       *
               *           SCF CONVERGED AFTER  48 CYCLES          *
               *****************************************************


----------------
TOTAL SCF ENERGY
----------------

Total Energy       :       -28361.74387267 Eh         -771762.28641 eV

Components:
Nuclear Repulsion  :         1210.10164785 Eh           32928.53989 eV
Electronic Energy  :       -29571.84552052 Eh         -804690.82630 eV
One Electron Energy:       -40906.52517831 Eh        -1113123.14019 eV
Two Electron Energy:        11334.67965779 Eh          308432.31388 eV

Virial components:
Potential Energy   :       -80544.84017264 Eh        -2191736.52683 eV
Kinetic Energy     :        52183.09629997 Eh         1419974.24042 eV
Virial Ratio       :            1.54350443


---------------
SCF CONVERGENCE
---------------

  Last Energy change         ...    1.9060e-06  Tolerance :   1.0000e-08
  Last MAX-Density change    ...    7.8433e-07  Tolerance :   1.0000e-07
  Last RMS-Density change    ...    1.1346e-08  Tolerance :   5.0000e-09
  Last DIIS Error            ...    8.0538e-07  Tolerance :   5.0000e-07

             **** THE GBW FILE WAS UPDATED (/home/nikolayandreadi_2125/_scratch/MP2/UO2_CO3.gbw) ****
             **** DENSITY FILE WAS UPDATED (/home/nikolayandreadi_2125/_scratch/MP2/UO2_CO3.scfp.tmp) ****
             **** ENERGY FILE WAS UPDATED (/home/nikolayandreadi_2125/_scratch/MP2/UO2_CO3.en.tmp) ****
----------------
ORBITAL ENERGIES
----------------

  NO   OCC          E(Eh)            E(eV) 
   0   2.0000   -4260.658076   -115938.4004 
   1   2.0000    -804.607216    -21894.4754 
   2   2.0000    -675.259506    -18374.7453 
   3   2.0000    -675.258753    -18374.7248 
   4   2.0000    -675.256965    -18374.6762 
   5   2.0000    -206.660516     -5623.5185 
   6   2.0000    -170.043467     -4627.1180 
   7   2.0000    -170.042278     -4627.0856 
   8   2.0000    -170.026632     -4626.6599 
   9   2.0000    -135.472452     -3686.3928 
  10   2.0000    -135.472412     -3686.3917 
  11   2.0000    -135.465744     -3686.2103 
  12   2.0000    -135.465331     -3686.1990 
  13   2.0000    -135.464340     -3686.1721 
  14   2.0000     -54.635264     -1486.7011 
  15   2.0000     -42.400661     -1153.7806 
  16   2.0000     -42.398663     -1153.7263 
  17   2.0000     -42.369295     -1152.9271 
  18   2.0000     -29.160412      -793.4952 
  19   2.0000     -29.160194      -793.4892 
  20   2.0000     -29.142496      -793.0076 
  21   2.0000     -29.141052      -792.9683 
  22   2.0000     -29.132906      -792.7467 
  23   2.0000     -20.655713      -562.0705 
  24   2.0000     -20.655414      -562.0624 
  25   2.0000     -20.578125      -559.9592 
  26   2.0000     -20.578077      -559.9579 
  27   2.0000     -20.524200      -558.4919 
  28   2.0000     -15.380406      -418.5221 
  29   2.0000     -15.379359      -418.4936 
  30   2.0000     -15.367147      -418.1613 
  31   2.0000     -15.366924      -418.1552 
  32   2.0000     -15.366033      -418.1310 
  33   2.0000     -15.356809      -417.8800 
  34   2.0000     -15.355118      -417.8340 
  35   2.0000     -12.923918      -351.6777 
  36   2.0000     -11.404575      -310.3343 
  37   2.0000      -9.007044      -245.0941 
  38   2.0000      -8.999638      -244.8926 
  39   2.0000      -8.984794      -244.4887 
  40   2.0000      -4.471292      -121.6700 
  41   2.0000      -4.452326      -121.1539 
  42   2.0000      -4.450001      -121.0907 
  43   2.0000      -4.448693      -121.0551 
  44   2.0000      -4.448354      -121.0459 
  45   2.0000      -2.373147       -64.5766 
  46   2.0000      -1.601623       -43.5824 
  47   2.0000      -1.490279       -40.5525 
  48   2.0000      -1.369706       -37.2716 
  49   2.0000      -1.352108       -36.7927 
  50   2.0000      -1.330987       -36.2180 
  51   2.0000      -1.235905       -33.6307 
  52   2.0000      -1.221132       -33.2287 
  53   2.0000      -1.015819       -27.6418 
  54   2.0000      -0.768996       -20.9254 
  55   2.0000      -0.695452       -18.9242 
  56   2.0000      -0.669024       -18.2051 
  57   2.0000      -0.657177       -17.8827 
  58   2.0000      -0.628315       -17.0973 
  59   2.0000      -0.616465       -16.7749 
  60   2.0000      -0.612767       -16.6742 
  61   2.0000      -0.594891       -16.1878 
  62   2.0000      -0.583658       -15.8821 
  63   2.0000      -0.555637       -15.1197 
  64   2.0000      -0.499621       -13.5954 
  65   2.0000      -0.493157       -13.4195 
  66   2.0000      -0.491089       -13.3632 
  67   2.0000      -0.439288       -11.9536 
  68   2.0000      -0.438090       -11.9210 
  69   0.0000      -0.026680        -0.7260 
  70   0.0000       0.010840         0.2950 
  71   0.0000       0.012684         0.3451 
  72   0.0000       0.038143         1.0379 
  73   0.0000       0.058730         1.5981 
  74   0.0000       0.059022         1.6061 
  75   0.0000       0.064307         1.7499 
  76   0.0000       0.081056         2.2057 
  77   0.0000       0.103464         2.8154 
  78   0.0000       0.117119         3.1870 
  79   0.0000       0.122596         3.3360 
  80   0.0000       0.131001         3.5647 
  81   0.0000       0.140467         3.8223 
  82   0.0000       0.151357         4.1186 
  83   0.0000       0.151749         4.1293 
  84   0.0000       0.157540         4.2869 
  85   0.0000       0.170346         4.6353 
  86   0.0000       0.175399         4.7729 
  87   0.0000       0.207245         5.6394 
  88   0.0000       0.213248         5.8028 
  89   0.0000       0.222435         6.0528 
  90   0.0000       0.241740         6.5781 
  91   0.0000       0.295279         8.0350 
  92   0.0000       0.333026         9.0621 
  93   0.0000       0.359631         9.7861 
  94   0.0000       0.382689        10.4135 
  95   0.0000       0.398716        10.8496 
  96   0.0000       0.410611        11.1733 
  97   0.0000       0.413416        11.2496 
  98   0.0000       0.433558        11.7977 
  99   0.0000       0.436682        11.8827 
 100   0.0000       0.451075        12.2744 
 101   0.0000       0.463697        12.6178 
 102   0.0000       0.504971        13.7410 
 103   0.0000       0.526880        14.3371 
 104   0.0000       0.541735        14.7414 
 105   0.0000       0.545118        14.8334 
 106   0.0000       0.564281        15.3549 
 107   0.0000       0.572102        15.5677 
 108   0.0000       0.574368        15.6294 
 109   0.0000       0.585829        15.9412 
 110   0.0000       0.622873        16.9492 
 111   0.0000       0.629989        17.1429 
 112   0.0000       0.666221        18.1288 
 113   0.0000       0.666520        18.1369 
 114   0.0000       0.688875        18.7452 
 115   0.0000       0.736211        20.0333 
 116   0.0000       0.737118        20.0580 
 117   0.0000       0.747425        20.3385 
 118   0.0000       0.756467        20.5845 
 119   0.0000       0.771764        21.0008 
 120   0.0000       0.792035        21.5524 
 121   0.0000       0.807199        21.9650 
 122   0.0000       0.828016        22.5315 
 123   0.0000       0.833470        22.6799 
 124   0.0000       0.836674        22.7671 
 125   0.0000       0.846508        23.0347 
 126   0.0000       0.897094        24.4112 
 127   0.0000       0.906311        24.6620 
 128   0.0000       0.940473        25.5916 
 129   0.0000       0.941089        25.6083 
 130   0.0000       0.970794        26.4167 
 131   0.0000       1.041486        28.3403 
 132   0.0000       1.083733        29.4899 
 133   0.0000       1.101510        29.9736 
 134   0.0000       1.147732        31.2314 
 135   0.0000       1.148829        31.2612 
 136   0.0000       1.204762        32.7832 
 137   0.0000       1.210943        32.9514 
 138   0.0000       1.245037        33.8792 
 139   0.0000       1.294100        35.2142 
 140   0.0000       1.304337        35.4928 
 141   0.0000       1.334135        36.3037 
 142   0.0000       1.337285        36.3894 
 143   0.0000       1.413236        38.4561 
 144   0.0000       1.465434        39.8765 
 145   0.0000       1.547523        42.1102 
 146   0.0000       1.553982        42.2860 
 147   0.0000       1.594209        43.3806 
 148   0.0000       1.622684        44.1555 
 149   0.0000       1.635903        44.5152 
 150   0.0000       1.720344        46.8129 
 151   0.0000       1.734042        47.1857 
 152   0.0000       1.765432        48.0399 
 153   0.0000       1.808257        49.2052 
 154   0.0000       1.813315        49.3428 
 155   0.0000       1.814357        49.3712 
 156   0.0000       1.855243        50.4837 
 157   0.0000       1.913186        52.0604 
 158   0.0000       1.941364        52.8272 
 159   0.0000       1.958093        53.2824 
 160   0.0000       1.995029        54.2875 
 161   0.0000       2.007234        54.6196 
 162   0.0000       2.020059        54.9686 
 163   0.0000       2.050473        55.7962 
 164   0.0000       2.071323        56.3636 
 165   0.0000       2.151405        58.5427 
 166   0.0000       2.162191        58.8362 
 167   0.0000       2.192656        59.6652 
 168   0.0000       2.201700        59.9113 
 169   0.0000       2.256663        61.4069 
 170   0.0000       2.268825        61.7379 
 171   0.0000       2.310670        62.8765 
 172   0.0000       2.364045        64.3289 
 173   0.0000       2.365016        64.3554 
 174   0.0000       2.375955        64.6530 
 175   0.0000       2.377060        64.6831 
 176   0.0000       2.382684        64.8361 
 177   0.0000       2.385017        64.8996 
 178   0.0000       2.475947        67.3739 
 179   0.0000       2.500317        68.0371 
 180   0.0000       2.531605        68.8885 
 181   0.0000       2.577775        70.1448 
 182   0.0000       2.649726        72.1027 
 183   0.0000       2.655635        72.2635 
 184   0.0000       2.666954        72.5715 
 185   0.0000       2.974625        80.9437 
 186   0.0000       3.000609        81.6507 
 187   0.0000       3.057609        83.2018 
 188   0.0000       3.065591        83.4190 
 189   0.0000       3.148445        85.6735 
 190   0.0000       3.174594        86.3851 
 191   0.0000       3.199831        87.0718 
 192   0.0000       3.225210        87.7624 
 193   0.0000       3.276379        89.1548 
 194   0.0000       3.278726        89.2187 
 195   0.0000       3.312535        90.1387 
 196   0.0000       3.337566        90.8198 
 197   0.0000       3.343941        90.9933 
 198   0.0000       3.350326        91.1670 
 199   0.0000       3.508850        95.4807 
 200   0.0000       3.527934        96.0000 
 201   0.0000       3.539260        96.3082 
 202   0.0000       3.583469        97.5112 
 203   0.0000       3.606165        98.1287 
 204   0.0000       3.632947        98.8575 
 205   0.0000       3.694719       100.5384 
 206   0.0000       3.701491       100.7227 
 207   0.0000       3.744751       101.8999 
 208   0.0000       3.747761       101.9818 
 209   0.0000       3.761840       102.3649 
 210   0.0000       3.776135       102.7539 
 211   0.0000       3.867528       105.2408 
 212   0.0000       3.876771       105.4923 
 213   0.0000       3.917888       106.6111 
 214   0.0000       3.934024       107.0502 
 215   0.0000       4.010583       109.1335 
 216   0.0000       4.022536       109.4588 
 217   0.0000       4.029132       109.6382 
 218   0.0000       4.152913       113.0065 
 219   0.0000       4.233652       115.2035 
 220   0.0000       4.483608       122.0052 
 221   0.0000       4.705448       128.0417 
 222   0.0000       4.721455       128.4773 
 223   0.0000       4.843687       131.8034 
 224   0.0000       4.852340       132.0389 
 225   0.0000       5.466045       148.7387 
 226   0.0000       5.467759       148.7853 
 227   0.0000       5.474406       148.9662 
 228   0.0000       5.485208       149.2601 
 229   0.0000       5.486066       149.2834 
 230   0.0000       5.498676       149.6266 
 231   0.0000       5.499232       149.6417 
 232   0.0000       5.503384       149.7547 
 233   0.0000       5.512068       149.9910 
 234   0.0000       5.520578       150.2226 
 235   0.0000       5.550643       151.0407 
 236   0.0000       5.578075       151.7871 
 237   0.0000       5.629214       153.1787 
 238   0.0000       5.649843       153.7400 
 239   0.0000       5.667999       154.2341 
 240   0.0000       5.697862       155.0467 
 241   0.0000       5.705968       155.2673 
 242   0.0000       5.721793       155.6979 
 243   0.0000       5.785890       157.4421 
 244   0.0000       5.849035       159.1603 
 245   0.0000       5.865558       159.6100 
 246   0.0000       5.878712       159.9679 
 247   0.0000       5.892854       160.3527 
 248   0.0000       5.893933       160.3821 
 249   0.0000       5.958631       162.1426 
 250   0.0000       5.995529       163.1466 
 251   0.0000       6.058398       164.8574 
 252   0.0000       6.149467       167.3355 
 253   0.0000       6.260006       170.3434 
 254   0.0000       6.442876       175.3196 
 255   0.0000       6.566092       178.6724 
 256   0.0000       6.687558       181.9777 
 257   0.0000       6.723256       182.9491 
 258   0.0000       6.723740       182.9623 
 259   0.0000       6.726835       183.0465 
 260   0.0000       6.747472       183.6081 
 261   0.0000       6.782992       184.5746 
 262   0.0000       6.841386       186.1636 
 263   0.0000       6.897225       187.6830 
 264   0.0000       6.899924       187.7565 
 265   0.0000       6.910123       188.0340 
 266   0.0000       6.969145       189.6401 
 267   0.0000       6.980403       189.9464 
 268   0.0000       7.091416       192.9672 
 269   0.0000       7.133226       194.1049 
 270   0.0000       7.152181       194.6207 
 271   0.0000       7.192016       195.7047 
 272   0.0000       7.206178       196.0901 
 273   0.0000       7.261603       197.5983 
 274   0.0000       7.264769       197.6844 
 275   0.0000       7.277299       198.0254 
 276   0.0000       7.311353       198.9520 
 277   0.0000       7.360181       200.2807 
 278   0.0000       7.380851       200.8432 
 279   0.0000       7.404366       201.4830 
 280   0.0000       7.491132       203.8441 
 281   0.0000       7.671676       208.7569 
 282   0.0000       7.674915       208.8451 
 283   0.0000       7.754382       211.0075 
 284   0.0000       7.852925       213.6890 
 285   0.0000       8.094745       220.2692 
 286   0.0000       8.507382       231.4976 
 287   0.0000       8.794130       239.3004 
 288   0.0000       9.036089       245.8845 
 289   0.0000       9.118908       248.1381 
 290   0.0000       9.161591       249.2996 
 291   0.0000       9.167871       249.4704 
 292   0.0000       9.680124       263.4096 
 293   0.0000       9.793617       266.4979 
 294   0.0000       9.940985       270.5080 
 295   0.0000      13.622228       370.6797 
 296   0.0000      13.625067       370.7569 
 297   0.0000      13.641517       371.2045 
 298   0.0000      13.650617       371.4522 
 299   0.0000      13.732665       373.6848 
 300   0.0000      13.836802       376.5185 
 301   0.0000      14.110275       383.9601 
 302   0.0000      15.439565       420.1319 
 303   0.0000      15.448530       420.3759 
 304   0.0000      15.552122       423.1948 
 305   0.0000      15.588643       424.1885 
 306   0.0000      15.628403       425.2705 
 307   0.0000      41.080397      1117.8544 
 308   0.0000      44.226455      1203.4630 
 309   0.0000      46.727941      1271.5319 
 310   0.0000      46.758077      1272.3520 
 311   0.0000      46.764997      1272.5403 
 312   0.0000      46.766416      1272.5789 
 313   0.0000      47.098082      1281.6040 
 314   0.0000      47.318064      1287.5900 
 315   0.0000      47.628299      1296.0319 
 316   0.0000      47.681290      1297.4739 
 317   0.0000      53.185115      1447.2405 
 318   0.0000      53.186741      1447.2848 
 319   0.0000      53.189953      1447.3722 
 320   0.0000      53.193098      1447.4578 
 321   0.0000      53.240782      1448.7553 
 322   0.0000      53.294547      1450.2183 
 323   0.0000      53.425415      1453.7795 
 324   0.0000      79.068906      2151.5743 
 325   0.0000      79.092250      2152.2095 
 326   0.0000      79.163910      2154.1595 
 327   0.0000      79.197698      2155.0789 
 328   0.0000      79.230449      2155.9701 
 329   0.0000     205.135066      5582.0089 
 330   0.0000     235.954972      6420.6612 
 331   0.0000     235.972735      6421.1446 
 332   0.0000     235.980187      6421.3474 
 333   0.0000     235.980587      6421.3582 
 334   0.0000     236.162865      6426.3183 
 335   0.0000     264.279886      7191.4213 
 336   0.0000     264.473864      7196.6997 
 337   0.0000     264.527198      7198.1510 
 338   0.0000     792.526898     21565.7533 
 339   0.0000    1085.623507     29541.3175 
 340   0.0000    1085.755702     29544.9147 
 341   0.0000    1085.786750     29545.7595 
 342   0.0000    2430.769781     66144.6085 
 343   0.0000    3783.367814    102950.6721 
 344   0.0000    3783.459347    102953.1629 
 345   0.0000    3783.477893    102953.6675 
 346   0.0000    6095.718689    165872.9384 
 347   0.0000   13027.339403    354491.9272 
 348   0.0000   24922.244446    678168.7488 
 349   0.0000   43992.468129   1197095.9170 
 350   0.0000   84401.578256   2296683.7055 

                    ********************************
                    * MULLIKEN POPULATION ANALYSIS *
                    ********************************

-----------------------
MULLIKEN ATOMIC CHARGES
-----------------------
   0 U :    2.565857
   1 O :   -0.736985
   2 C :    0.785137
   3 O :   -0.736955
   4 O :   -0.507354
   5 O :   -0.684872
   6 O :   -0.684828
Sum of atomic charges:   -0.0000000

--------------------------------
MULLIKEN REDUCED ORBITAL CHARGES
--------------------------------
  0 U s       :    12.375068  s :    12.375068
      pz      :     9.568439  p :    29.507923
      px      :     9.943224
      py      :     9.996259
      dz2     :     6.317856  d :    31.388020
      dxz     :     6.385280
      dyz     :     6.379766
      dx2y2   :     6.073741
      dxy     :     6.231377
      f0      :     3.113638  f :    16.163132
      f+1     :     2.414362
      f-1     :     2.380611
      f+2     :     2.044568
      f-2     :     2.082987
      f+3     :     2.020710
      f-3     :     2.106257
  1 O s       :     3.939101  s :     3.939101
      pz      :     1.740534  p :     4.768047
      px      :     1.515209
      py      :     1.512304
      dz2     :     0.003317  d :     0.028431
      dxz     :     0.001461
      dyz     :     0.005709
      dx2y2   :     0.006405
      dxy     :     0.011540
      f0      :     0.000212  f :     0.001406
      f+1     :     0.000196
      f-1     :     0.000233
      f+2     :     0.000026
      f-2     :     0.000121
      f+3     :     0.000285
      f-3     :     0.000334
  2 C s       :     2.911198  s :     2.911198
      pz      :     0.653128  p :     1.959509
      px      :     0.633112
      py      :     0.673269
      dz2     :     0.001018  d :     0.310029
      dxz     :     0.096118
      dyz     :     0.039200
      dx2y2   :     0.074032
      dxy     :     0.099662
      f0      :     0.004071  f :     0.034126
      f+1     :     0.001370
      f-1     :     0.001183
      f+2     :     0.003739
      f-2     :     0.004564
      f+3     :     0.006189
      f-3     :     0.013010
  3 O s       :     3.939098  s :     3.939098
      pz      :     1.740555  p :     4.768019
      px      :     1.515114
      py      :     1.512350
      dz2     :     0.003317  d :     0.028432
      dxz     :     0.001460
      dyz     :     0.005709
      dx2y2   :     0.006402
      dxy     :     0.011544
      f0      :     0.000212  f :     0.001406
      f+1     :     0.000196
      f-1     :     0.000233
      f+2     :     0.000026
      f-2     :     0.000121
      f+3     :     0.000285
      f-3     :     0.000334
  4 O s       :     3.910944  s :     3.910944
      pz      :     1.478119  p :     4.557872
      px      :     1.289822
      py      :     1.789931
      dz2     :     0.003123  d :     0.036157
      dxz     :     0.013579
      dyz     :     0.000015
      dx2y2   :     0.011121
      dxy     :     0.008319
      f0      :     0.000230  f :     0.002380
      f+1     :     0.000260
      f-1     :     0.000025
      f+2     :     0.000562
      f-2     :     0.000014
      f+3     :     0.000637
      f-3     :     0.000653
  5 O s       :     4.053999  s :     4.053999
      pz      :     1.379438  p :     4.587064
      px      :     1.598575
      py      :     1.609051
      dz2     :     0.014114  d :     0.041211
      dxz     :     0.013268
      dyz     :     0.013593
      dx2y2   :     0.000127
      dxy     :     0.000108
      f0      :     0.001163  f :     0.002598
      f+1     :     0.000742
      f-1     :     0.000631
      f+2     :     0.000033
      f-2     :     0.000027
      f+3     :     0.000000
      f-3     :     0.000001
  6 O s       :     4.053990  s :     4.053990
      pz      :     1.371238  p :     4.587045
      px      :     1.606719
      py      :     1.609088
      dz2     :     0.014332  d :     0.041198
      dxz     :     0.013170
      dyz     :     0.013704
      dx2y2   :     0.000003
      dxy     :    -0.000011
      f0      :     0.001236  f :     0.002595
      f+1     :     0.000694
      f-1     :     0.000654
      f+2     :     0.000007
      f-2     :     0.000004
      f+3     :     0.000000
      f-3     :     0.000000


                     *******************************
                     * LOEWDIN POPULATION ANALYSIS *
                     *******************************

----------------------
LOEWDIN ATOMIC CHARGES
----------------------
   0 U :    0.845376
   1 O :   -0.008937
   2 C :   -0.559866
   3 O :   -0.008943
   4 O :    0.056045
   5 O :   -0.161726
   6 O :   -0.161950

-------------------------------
LOEWDIN REDUCED ORBITAL CHARGES
-------------------------------
  0 U s       :    12.016620  s :    12.016620
      pz      :     9.726571  p :    29.751924
      px      :    10.005164
      py      :    10.020189
      dz2     :     6.801150  d :    32.309691
      dxz     :     6.502397
      dyz     :     6.474169
      dx2y2   :     6.135838
      dxy     :     6.396137
      f0      :     3.461715  f :    17.076390
      f+1     :     2.584500
      f-1     :     2.526369
      f+2     :     2.063595
      f-2     :     2.143677
      f+3     :     2.086259
      f-3     :     2.210276
  1 O s       :     3.357821  s :     3.357821
      pz      :     1.585998  p :     4.580607
      px      :     1.471201
      py      :     1.523408
      dz2     :     0.010066  d :     0.066090
      dxz     :     0.005564
      dyz     :     0.006531
      dx2y2   :     0.018665
      dxy     :     0.025264
      f0      :     0.000311  f :     0.004419
      f+1     :     0.000456
      f-1     :     0.000541
      f+2     :     0.000076
      f-2     :     0.000451
      f+3     :     0.000935
      f-3     :     0.001650
  2 C s       :     2.708424  s :     2.708424
      pz      :     0.660106  p :     2.472639
      px      :     0.974140
      py      :     0.838393
      dz2     :     0.077060  d :     1.168025
      dxz     :     0.230172
      dyz     :     0.128162
      dx2y2   :     0.316918
      dxy     :     0.415712
      f0      :     0.014607  f :     0.210779
      f+1     :     0.013586
      f-1     :     0.010634
      f+2     :     0.021989
      f-2     :     0.027867
      f+3     :     0.036851
      f-3     :     0.085243
  3 O s       :     3.357844  s :     3.357844
      pz      :     1.586033  p :     4.580597
      px      :     1.471127
      py      :     1.523438
      dz2     :     0.010065  d :     0.066083
      dxz     :     0.005562
      dyz     :     0.006530
      dx2y2   :     0.018654
      dxy     :     0.025272
      f0      :     0.000311  f :     0.004418
      f+1     :     0.000456
      f-1     :     0.000540
      f+2     :     0.000076
      f-2     :     0.000451
      f+3     :     0.000935
      f-3     :     0.001650
  4 O s       :     3.399307  s :     3.399307
      pz      :     1.373383  p :     4.476246
      px      :     1.480436
      py      :     1.622428
      dz2     :     0.008251  d :     0.062618
      dxz     :     0.013544
      dyz     :     0.000087
      dx2y2   :     0.026774
      dxy     :     0.013961
      f0      :     0.000389  f :     0.005784
      f+1     :     0.000985
      f-1     :     0.000091
      f+2     :     0.000757
      f-2     :     0.000069
      f+3     :     0.002030
      f-3     :     0.001462
  5 O s       :     3.552918  s :     3.552918
      pz      :     1.491290  p :     4.502043
      px      :     1.509068
      py      :     1.501685
      dz2     :     0.060121  d :     0.099476
      dxz     :     0.021312
      dyz     :     0.017417
      dx2y2   :     0.000295
      dxy     :     0.000332
      f0      :     0.004033  f :     0.007288
      f+1     :     0.001841
      f-1     :     0.001264
      f+2     :     0.000074
      f-2     :     0.000072
      f+3     :     0.000001
      f-3     :     0.000005
  6 O s       :     3.552968  s :     3.552968
      pz      :     1.488254  p :     4.502249
      px      :     1.512200
      py      :     1.501796
      dz2     :     0.062591  d :     0.099449
      dxz     :     0.018998
      dyz     :     0.017576
      dx2y2   :     0.000111
      dxy     :     0.000173
      f0      :     0.004370  f :     0.007284
      f+1     :     0.001551
      f-1     :     0.001304
      f+2     :     0.000022
      f-2     :     0.000032
      f+3     :     0.000000
      f-3     :     0.000003


                      *****************************
                      * MAYER POPULATION ANALYSIS *
                      *****************************

  NA   - Mulliken gross atomic population
  ZA   - Total nuclear charge
  QA   - Mulliken gross atomic charge
  VA   - Mayer's total valence
  BVA  - Mayer's bonded valence
  FA   - Mayer's free valence

  ATOM       NA         ZA         QA         VA         BVA        FA
  0 U     89.4341    92.0000     2.5659     3.3650     3.3650     0.0000
  1 O      8.7370     8.0000    -0.7370     1.5618     1.5618     0.0000
  2 C      5.2149     6.0000     0.7851     4.0609     4.0609    -0.0000
  3 O      8.7370     8.0000    -0.7370     1.5619     1.5619     0.0000
  4 O      8.5074     8.0000    -0.5074     1.9106     1.9106    -0.0000
  5 O      8.6849     8.0000    -0.6849     1.3938     1.3938     0.0000
  6 O      8.6848     8.0000    -0.6848     1.3943     1.3943     0.0000

  Mayer bond orders larger than 0.1
B(  0-U ,  1-O ) :   0.4727 B(  0-U ,  3-O ) :   0.4727 B(  0-U ,  5-O ) :   1.2208 
B(  0-U ,  6-O ) :   1.2218 B(  1-O ,  2-C ) :   1.0681 B(  2-C ,  3-O ) :   1.0682 
B(  2-C ,  4-O ) :   1.9300 

-------
TIMINGS
-------

Total SCF time: 0 days 0 hours 1 min 20 sec 

Total time                  ....      80.949 sec
Sum of individual times     ....      80.110 sec  ( 99.0%)

Fock matrix formation       ....      73.402 sec  ( 90.7%)
Diagonalization             ....       3.628 sec  (  4.5%)
Density matrix formation    ....       0.144 sec  (  0.2%)
Population analysis         ....       0.091 sec  (  0.1%)
Initial guess               ....       0.187 sec  (  0.2%)
Orbital Transformation      ....       0.000 sec  (  0.0%)
Orbital Orthonormalization  ....       0.000 sec  (  0.0%)
DIIS solution               ....       2.558 sec  (  3.2%)


           ************************************************************
           *        Program running with 42 parallel MPI-processes    *
           *              working on a common directory               *
           ************************************************************

------------------------------------------------------------------------------
                                ORCA  MP2 
------------------------------------------------------------------------------

Freezing NCore=80 chemical core electrons
MP2 will be done in the AO integral direct mode
The Q1-step will be done using symmetric double matrices
Dimension of the basis                    ...  351
Memory devoted for MP2                    ... 13500 MB   
Memory needed for all in one shot         ...  166 MB
Number of MOs that can be treated together...   80      
MP2 density construction                  ... relaxed
The MP2 gradient is requested => amplitudes will be stored on disk
Total number of MOs              ...   29
Number of MOs treated per batch  ...    1 
Number of batches necessary      ...    1 
OPERATORS   0/  0 PASS   0
-----------------------------------------------
 MP2 CORRELATION ENERGY   :     -2.291258530 Eh
-----------------------------------------------


---------------------
MP2 DENSITY FORMATION
---------------------

Completing the external part of the density      ... done
Storing the unrelaxed density                    ... done

Calculating G(D)                                 ... done
Completing the Lagrangian                        ... done
Solving the Z-vector equations                   ... 

------------------------------------------------------------------------------
                           ORCA CP-SCF CALCULATION
------------------------------------------------------------------------------

Input orbitals are from        ... /home/nikolayandreadi_2125/_scratch/MP2/UO2_CO3.gbw
Input Perturbation             ... /home/nikolayandreadi_2125/_scratch/MP2/UO2_CO3.pin.tmp
Wavefunction output            ... /home/nikolayandreadi_2125/_scratch/MP2/UO2_CO3.pout.tmp
Perturbation mode              ... Real perturbation
Solver                         ... DIIS
   MaxDIIS                     ... 20
   Levelshift                  ...    3.000e-01 Eh
Max. number of iterations      ... 5000
Convergence tolerance          ... 1.000e-08
Integral handling              ... Direct
Number of perturbations        ... 1
Number of operators            ... 1
Orbital ranges used for CP-SCF:
 Operator 0:  Orbitals   0... 68  to  69...350
Variables per vector in CP-SCF ... 19458
Number of vectors sought       ... 1

Solving the CP-SCF equations by a DIIS algorithm

-----------------
CP-SCF ITERATIONS
-----------------
  Iteration   0: MaxR=  0.931148991
  Iteration   1: MaxR=  0.844366455
  Iteration   2: MaxR=  0.214012474
  Iteration   3: MaxR=  0.139495256
  Iteration   4: MaxR=  0.064500471
  Iteration   5: MaxR=  0.027708829
  Iteration   6: MaxR=  0.009061795
  Iteration   7: MaxR=  0.003916054
  Iteration   8: MaxR=  0.001275734
  Iteration   9: MaxR=  0.000520955
  Iteration  10: MaxR=  0.000223163
  Iteration  11: MaxR=  0.000102906
  Iteration  12: MaxR=  0.000053478
  Iteration  13: MaxR=  0.000033158
  Iteration  14: MaxR=  0.000018600
  Iteration  15: MaxR=  0.000007989
  Iteration  16: MaxR=  0.000003551
  Iteration  17: MaxR=  0.000001540
  Iteration  18: MaxR=  0.000000613
  Iteration  19: MaxR=  0.000000286
  Iteration  20: MaxR=  0.000000124
  Iteration  21: MaxR=  0.000000053
  Iteration  22: MaxR=  0.000000020
  Iteration  23: MaxR=  0.000000008
                              *** THE CP-SCF HAS CONVERGED *** 
                                                 ... done
Finalizing the relaxed density                   ... done
Transforming P to the AO basis                   ... done
Storing the relaxed density                      ... done

------------------------------------
ENERGY WEIGHTED DENSITY FINALIZATION
------------------------------------

Gathering the parts of the W-matrix              ...                                                      done
Forming the Z-density                            ... done
Transforming Z to the AO basis                   ... done
Calculating G(Z)                                 ... done
Finalizing the W-matrix                          ...                                                      done
Transforming W to the AO basis and storing       ... done

                *********************************************
                * UNRELAXED MP2 DENSITY POPULATION ANALYSIS *
                *********************************************

------------------------------------------------------------------------------
                           ORCA POPULATION ANALYSIS
------------------------------------------------------------------------------
Input electron density              ... /home/nikolayandreadi_2125/_scratch/MP2/UO2_CO3.pmp2ur
BaseName (.gbw .S,...)              ... /home/nikolayandreadi_2125/_scratch/MP2/UO2_CO3

                    ********************************
                    * MULLIKEN POPULATION ANALYSIS *
                    ********************************

-----------------------
MULLIKEN ATOMIC CHARGES
-----------------------
   0 U :    2.417750
   1 O :   -0.704096
   2 C :    0.739278
   3 O :   -0.704065
   4 O :   -0.483082
   5 O :   -0.632888
   6 O :   -0.632897
Sum of atomic charges:   -0.0000000

--------------------------------
MULLIKEN REDUCED ORBITAL CHARGES
--------------------------------
  0 U s       :    12.368806  s :    12.368806
      pz      :     9.560620  p :    29.450402
      px      :     9.918592
      py      :     9.971190
      dz2     :     6.321009  d :    31.443642
      dxz     :     6.401129
      dyz     :     6.396036
      dx2y2   :     6.083836
      dxy     :     6.241632
      f0      :     3.119339  f :    16.319400
      f+1     :     2.446128
      f-1     :     2.412127
      f+2     :     2.066748
      f-2     :     2.108604
      f+3     :     2.038197
      f-3     :     2.128256
  1 O s       :     3.932114  s :     3.932114
      pz      :     1.718391  p :     4.708527
      px      :     1.495296
      py      :     1.494841
      dz2     :     0.009211  d :     0.059221
      dxz     :     0.007984
      dyz     :     0.011736
      dx2y2   :     0.012619
      dxy     :     0.017672
      f0      :     0.000592  f :     0.004234
      f+1     :     0.000571
      f-1     :     0.000621
      f+2     :     0.000425
      f-2     :     0.000536
      f+3     :     0.000716
      f-3     :     0.000772
  2 C s       :     2.915982  s :     2.915982
      pz      :     0.669626  p :     1.985237
      px      :     0.635531
      py      :     0.680079
      dz2     :     0.003256  d :     0.322425
      dxz     :     0.098203
      dyz     :     0.042318
      dx2y2   :     0.077654
      dxy     :     0.100994
      f0      :     0.004204  f :     0.037078
      f+1     :     0.001779
      f-1     :     0.001430
      f+2     :     0.004178
      f-2     :     0.005115
      f+3     :     0.006830
      f-3     :     0.013541
  3 O s       :     3.932111  s :     3.932111
      pz      :     1.718412  p :     4.708499
      px      :     1.495202
      py      :     1.494885
      dz2     :     0.009212  d :     0.059221
      dxz     :     0.007982
      dyz     :     0.011736
      dx2y2   :     0.012616
      dxy     :     0.017676
      f0      :     0.000592  f :     0.004234
      f+1     :     0.000571
      f-1     :     0.000621
      f+2     :     0.000425
      f-2     :     0.000536
      f+3     :     0.000716
      f-3     :     0.000772
  4 O s       :     3.904274  s :     3.904274
      pz      :     1.460604  p :     4.511325
      px      :     1.279468
      py      :     1.771253
      dz2     :     0.008269  d :     0.062425
      dxz     :     0.018620
      dyz     :     0.005544
      dx2y2   :     0.015947
      dxy     :     0.014045
      f0      :     0.000593  f :     0.005058
      f+1     :     0.000645
      f-1     :     0.000361
      f+2     :     0.000942
      f-2     :     0.000398
      f+3     :     0.001037
      f-3     :     0.001082
  5 O s       :     4.045730  s :     4.045730
      pz      :     1.358732  p :     4.510537
      px      :     1.571267
      py      :     1.580537
      dz2     :     0.020140  d :     0.071148
      dxz     :     0.019345
      dyz     :     0.019657
      dx2y2   :     0.006010
      dxy     :     0.005996
      f0      :     0.001621  f :     0.005474
      f+1     :     0.001206
      f-1     :     0.001094
      f+2     :     0.000444
      f-2     :     0.000438
      f+3     :     0.000335
      f-3     :     0.000336
  6 O s       :     4.045716  s :     4.045716
      pz      :     1.350922  p :     4.510573
      px      :     1.579059
      py      :     1.580591
      dz2     :     0.020346  d :     0.071137
      dxz     :     0.019264
      dyz     :     0.019771
      dx2y2   :     0.005880
      dxy     :     0.005875
      f0      :     0.001692  f :     0.005471
      f+1     :     0.001161
      f-1     :     0.001119
      f+2     :     0.000417
      f-2     :     0.000414
      f+3     :     0.000334
      f-3     :     0.000334


                     *******************************
                     * LOEWDIN POPULATION ANALYSIS *
                     *******************************

----------------------
LOEWDIN ATOMIC CHARGES
----------------------
   0 U :    0.734780
   1 O :    0.012333
   2 C :   -0.580473
   3 O :    0.012328
   4 O :    0.070697
   5 O :   -0.124698
   6 O :   -0.124967

-------------------------------
LOEWDIN REDUCED ORBITAL CHARGES
-------------------------------
  0 U s       :    12.012217  s :    12.012217
      pz      :     9.718591  p :    29.692821
      px      :     9.979230
      py      :     9.995001
      dz2     :     6.794411  d :    32.343562
      dxz     :     6.513646
      dyz     :     6.487260
      dx2y2   :     6.144372
      dxy     :     6.403873
      f0      :     3.462097  f :    17.216619
      f+1     :     2.612219
      f-1     :     2.553305
      f+2     :     2.085568
      f-2     :     2.168719
      f+3     :     2.103256
      f-3     :     2.231454
  1 O s       :     3.354233  s :     3.354233
      pz      :     1.566678  p :     4.525897
      px      :     1.452922
      py      :     1.506296
      dz2     :     0.016738  d :     0.099879
      dxz     :     0.012256
      dyz     :     0.012959
      dx2y2   :     0.025183
      dxy     :     0.032744
      f0      :     0.000734  f :     0.007658
      f+1     :     0.000876
      f-1     :     0.000986
      f+2     :     0.000491
      f-2     :     0.000913
      f+3     :     0.001502
      f-3     :     0.002155
  2 C s       :     2.710419  s :     2.710419
      pz      :     0.673200  p :     2.484747
      px      :     0.971732
      py      :     0.839814
      dz2     :     0.081594  d :     1.168717
      dxz     :     0.228344
      dyz     :     0.129287
      dx2y2   :     0.316752
      dxy     :     0.412742
      f0      :     0.015375  f :     0.216590
      f+1     :     0.014717
      f-1     :     0.011411
      f+2     :     0.022384
      f-2     :     0.028113
      f+3     :     0.039828
      f-3     :     0.084762
  3 O s       :     3.354256  s :     3.354256
      pz      :     1.566713  p :     4.525887
      px      :     1.452849
      py      :     1.506325
      dz2     :     0.016737  d :     0.099872
      dxz     :     0.012254
      dyz     :     0.012958
      dx2y2   :     0.025171
      dxy     :     0.032751
      f0      :     0.000734  f :     0.007657
      f+1     :     0.000876
      f-1     :     0.000986
      f+2     :     0.000491
      f-2     :     0.000913
      f+3     :     0.001502
      f-3     :     0.002154
  4 O s       :     3.395214  s :     3.395214
      pz      :     1.358128  p :     4.432029
      px      :     1.467151
      py      :     1.606750
      dz2     :     0.013831  d :     0.092880
      dxz     :     0.020030
      dyz     :     0.005523
      dx2y2   :     0.033224
      dxy     :     0.020272
      f0      :     0.000839  f :     0.009180
      f+1     :     0.001502
      f-1     :     0.000440
      f+2     :     0.001271
      f-2     :     0.000454
      f+3     :     0.002644
      f-3     :     0.002030
  5 O s       :     3.547779  s :     3.547779
      pz      :     1.472438  p :     4.433728
      px      :     1.484771
      py      :     1.476518
      dz2     :     0.067546  d :     0.132600
      dxz     :     0.028280
      dyz     :     0.024243
      dx2y2   :     0.006236
      dxy     :     0.006295
      f0      :     0.004702  f :     0.010591
      f+1     :     0.002415
      f-1     :     0.001804
      f+2     :     0.000496
      f-2     :     0.000496
      f+3     :     0.000337
      f-3     :     0.000342
  6 O s       :     3.547828  s :     3.547828
      pz      :     1.469721  p :     4.433980
      px      :     1.487615
      py      :     1.476644
      dz2     :     0.070056  d :     0.132572
      dxz     :     0.025942
      dyz     :     0.024417
      dx2y2   :     0.006037
      dxy     :     0.006121
      f0      :     0.005057  f :     0.010586
      f+1     :     0.002113
      f-1     :     0.001849
      f+2     :     0.000441
      f-2     :     0.000453
      f+3     :     0.000335
      f-3     :     0.000338


                      *****************************
                      * MAYER POPULATION ANALYSIS *
                      *****************************

  NA   - Mulliken gross atomic population
  ZA   - Total nuclear charge
  QA   - Mulliken gross atomic charge
  VA   - Mayer's total valence
  BVA  - Mayer's bonded valence
  FA   - Mayer's free valence

  ATOM       NA         ZA         QA         VA         BVA        FA
  0 U     89.5823    92.0000     2.4177     4.3773     2.8789     1.4984
  1 O      8.7041     8.0000    -0.7041     1.9206     1.4310     0.4896
  2 C      5.2607     6.0000     0.7393     4.1254     3.7707     0.3547
  3 O      8.7041     8.0000    -0.7041     1.9207     1.4311     0.4896
  4 O      8.4831     8.0000    -0.4831     2.2099     1.7671     0.4428
  5 O      8.6329     8.0000    -0.6329     1.7675     1.1706     0.5969
  6 O      8.6329     8.0000    -0.6329     1.7680     1.1713     0.5966

  Mayer bond orders larger than 0.1
B(  0-U ,  1-O ) :   0.4331 B(  0-U ,  3-O ) :   0.4332 B(  0-U ,  5-O ) :   1.0182 
B(  0-U ,  6-O ) :   1.0194 B(  1-O ,  2-C ) :   0.9905 B(  2-C ,  3-O ) :   0.9906 
B(  2-C ,  4-O ) :   1.7979 


                *******************************************
                * RELAXED MP2 DENSITY POPULATION ANALYSIS *
                *******************************************

------------------------------------------------------------------------------
                           ORCA POPULATION ANALYSIS
------------------------------------------------------------------------------
Input electron density              ... /home/nikolayandreadi_2125/_scratch/MP2/UO2_CO3.pmp2re
BaseName (.gbw .S,...)              ... /home/nikolayandreadi_2125/_scratch/MP2/UO2_CO3

                    ********************************
                    * MULLIKEN POPULATION ANALYSIS *
                    ********************************

-----------------------
MULLIKEN ATOMIC CHARGES
-----------------------
   0 U :    1.822683
   1 O :   -0.552450
   2 C :    0.529325
   3 O :   -0.552426
   4 O :   -0.361608
   5 O :   -0.442847
   6 O :   -0.442677
Sum of atomic charges:   -0.0000000

--------------------------------
MULLIKEN REDUCED ORBITAL CHARGES
--------------------------------
  0 U s       :    12.414170  s :    12.414170
      pz      :     9.727043  p :    29.647052
      px      :     9.932802
      py      :     9.987207
      dz2     :     6.296534  d :    31.646294
      dxz     :     6.496137
      dyz     :     6.484956
      dx2y2   :     6.094633
      dxy     :     6.274034
      f0      :     2.902769  f :    16.469801
      f+1     :     2.570475
      f-1     :     2.540882
      f+2     :     2.088306
      f-2     :     2.156059
      f+3     :     2.044554
      f-3     :     2.166756
  1 O s       :     3.922793  s :     3.922793
      pz      :     1.644133  p :     4.566473
      px      :     1.460211
      py      :     1.462129
      dz2     :     0.008995  d :     0.058953
      dxz     :     0.008655
      dyz     :     0.011861
      dx2y2   :     0.013225
      dxy     :     0.016216
      f0      :     0.000601  f :     0.004231
      f+1     :     0.000561
      f-1     :     0.000602
      f+2     :     0.000435
      f-2     :     0.000561
      f+3     :     0.000674
      f-3     :     0.000797
  2 C s       :     2.932034  s :     2.932034
      pz      :     0.795828  p :     2.184821
      px      :     0.661867
      py      :     0.727127
      dz2     :     0.004344  d :     0.319402
      dxz     :     0.090907
      dyz     :     0.042995
      dx2y2   :     0.083706
      dxy     :     0.097450
      f0      :     0.003804  f :     0.034418
      f+1     :     0.001972
      f-1     :     0.001478
      f+2     :     0.003518
      f-2     :     0.004595
      f+3     :     0.006337
      f-3     :     0.012714
  3 O s       :     3.922795  s :     3.922795
      pz      :     1.644154  p :     4.566449
      px      :     1.460125
      py      :     1.462170
      dz2     :     0.008995  d :     0.058952
      dxz     :     0.008654
      dyz     :     0.011861
      dx2y2   :     0.013223
      dxy     :     0.016219
      f0      :     0.000601  f :     0.004231
      f+1     :     0.000562
      f-1     :     0.000602
      f+2     :     0.000435
      f-2     :     0.000561
      f+3     :     0.000673
      f-3     :     0.000797
  4 O s       :     3.883703  s :     3.883703
      pz      :     1.413179  p :     4.413328
      px      :     1.287688
      py      :     1.712461
      dz2     :     0.008014  d :     0.059645
      dxz     :     0.017351
      dyz     :     0.005591
      dx2y2   :     0.014069
      dxy     :     0.014620
      f0      :     0.000580  f :     0.004932
      f+1     :     0.000606
      f-1     :     0.000361
      f+2     :     0.000927
      f-2     :     0.000398
      f+3     :     0.000952
      f-3     :     0.001107
  5 O s       :     4.019391  s :     4.019391
      pz      :     1.405982  p :     4.354310
      px      :     1.477360
      py      :     1.470969
      dz2     :     0.015018  d :     0.063968
      dxz     :     0.018079
      dyz     :     0.018738
      dx2y2   :     0.006034
      dxy     :     0.006099
      f0      :     0.001375  f :     0.005177
      f+1     :     0.001151
      f-1     :     0.001098
      f+2     :     0.000442
      f-2     :     0.000440
      f+3     :     0.000335
      f-3     :     0.000337
  6 O s       :     4.019369  s :     4.019369
      pz      :     1.404820  p :     4.354164
      px      :     1.478170
      py      :     1.471173
      dz2     :     0.014853  d :     0.063968
      dxz     :     0.018372
      dyz     :     0.018846
      dx2y2   :     0.005913
      dxy     :     0.005983
      f0      :     0.001407  f :     0.005176
      f+1     :     0.001144
      f-1     :     0.001121
      f+2     :     0.000418
      f-2     :     0.000418
      f+3     :     0.000334
      f-3     :     0.000335


                     *******************************
                     * LOEWDIN POPULATION ANALYSIS *
                     *******************************

----------------------
LOEWDIN ATOMIC CHARGES
----------------------
   0 U :    0.397505
   1 O :    0.093500
   2 C :   -0.657181
   3 O :    0.093495
   4 O :    0.131072
   5 O :   -0.029089
   6 O :   -0.029303

-------------------------------
LOEWDIN REDUCED ORBITAL CHARGES
-------------------------------
  0 U s       :    12.034281  s :    12.034281
      pz      :     9.796286  p :    29.746744
      px      :     9.962213
      py      :     9.988244
      dz2     :     6.757091  d :    32.459490
      dxz     :     6.572977
      dyz     :     6.548374
      dx2y2   :     6.155238
      dxy     :     6.425810
      f0      :     3.274109  f :    17.361980
      f+1     :     2.727625
      f-1     :     2.664790
      f+2     :     2.107426
      f-2     :     2.213960
      f+3     :     2.107181
      f-3     :     2.266889
  1 O s       :     3.361615  s :     3.361615
      pz      :     1.514171  p :     4.433237
      px      :     1.435255
      py      :     1.483812
      dz2     :     0.017116  d :     0.103718
      dxz     :     0.013614
      dyz     :     0.014392
      dx2y2   :     0.026039
      dxy     :     0.032556
      f0      :     0.000805  f :     0.007930
      f+1     :     0.000890
      f-1     :     0.000991
      f+2     :     0.000516
      f-2     :     0.001024
      f+3     :     0.001482
      f-3     :     0.002222
  2 C s       :     2.713707  s :     2.713707
      pz      :     0.760054  p :     2.576987
      px      :     0.966160
      py      :     0.850773
      dz2     :     0.082840  d :     1.162878
      dxz     :     0.218940
      dyz     :     0.124925
      dx2y2   :     0.319993
      dxy     :     0.416180
      f0      :     0.012166  f :     0.203610
      f+1     :     0.015032
      f-1     :     0.011446
      f+2     :     0.021227
      f-2     :     0.025910
      f+3     :     0.039578
      f-3     :     0.078250
  3 O s       :     3.361638  s :     3.361638
      pz      :     1.514204  p :     4.433229
      px      :     1.435187
      py      :     1.483838
      dz2     :     0.017115  d :     0.103709
      dxz     :     0.013613
      dyz     :     0.014390
      dx2y2   :     0.026028
      dxy     :     0.032563
      f0      :     0.000805  f :     0.007929
      f+1     :     0.000890
      f-1     :     0.000990
      f+2     :     0.000516
      f-2     :     0.001024
      f+3     :     0.001482
      f-3     :     0.002222
  4 O s       :     3.397334  s :     3.397334
      pz      :     1.328147  p :     4.368131
      px      :     1.470850
      py      :     1.569133
      dz2     :     0.013696  d :     0.094024
      dxz     :     0.022088
      dyz     :     0.005552
      dx2y2   :     0.031628
      dxy     :     0.021059
      f0      :     0.000954  f :     0.009439
      f+1     :     0.001481
      f-1     :     0.000440
      f+2     :     0.001467
      f-2     :     0.000454
      f+3     :     0.002567
      f-3     :     0.002075
  5 O s       :     3.561032  s :     3.561032
      pz      :     1.520910  p :     4.322244
      px      :     1.409525
      py      :     1.391810
      dz2     :     0.068150  d :     0.135103
      dxz     :     0.029157
      dyz     :     0.025113
      dx2y2   :     0.006279
[...]
      f+1     :     0.014444
      f-1     :     0.011522
      f+2     :     0.022673
      f-2     :     0.026788
      f+3     :     0.040294
      f-3     :     0.082013
  3 O s       :     3.350430  s :     3.350430
      pz      :     1.566449  p :     4.501343
      px      :     1.437411
      py      :     1.497483
      dz2     :     0.017853  d :     0.103811
      dxz     :     0.012402
      dyz     :     0.013116
      dx2y2   :     0.022991
      dxy     :     0.037449
      f0      :     0.000750  f :     0.007911
      f+1     :     0.000969
      f-1     :     0.001006
      f+2     :     0.000469
      f-2     :     0.000968
      f+3     :     0.001549
      f-3     :     0.002200
  4 O s       :     3.399802  s :     3.399802
      pz      :     1.357413  p :     4.434443
      px      :     1.462041
      py      :     1.614989
      dz2     :     0.013831  d :     0.092694
      dxz     :     0.019873
      dyz     :     0.005588
      dx2y2   :     0.033158
      dxy     :     0.020243
      f0      :     0.000827  f :     0.009069
      f+1     :     0.001483
      f-1     :     0.000442
      f+2     :     0.001245
      f-2     :     0.000460
      f+3     :     0.002598
      f-3     :     0.002014
  5 O s       :     3.538814  s :     3.538814
      pz      :     1.484859  p :     4.434161
      px      :     1.483042
      py      :     1.466260
      dz2     :     0.067548  d :     0.140310
      dxz     :     0.028427
      dyz     :     0.029939
      dx2y2   :     0.006969
      dxy     :     0.007427
      f0      :     0.004624  f :     0.011540
      f+1     :     0.002397
      f-1     :     0.002500
      f+2     :     0.000614
      f-2     :     0.000702
      f+3     :     0.000349
      f-3     :     0.000354
  6 O s       :     3.538804  s :     3.538804
      pz      :     1.482798  p :     4.434147
      px      :     1.485091
      py      :     1.466258
      dz2     :     0.069535  d :     0.140324
      dxz     :     0.026580
      dyz     :     0.030179
      dx2y2   :     0.006841
      dxy     :     0.007188
      f0      :     0.004894  f :     0.011541
      f+1     :     0.002162
      f-1     :     0.002567
      f+2     :     0.000583
      f-2     :     0.000640
      f+3     :     0.000346
      f-3     :     0.000349


                      *****************************
                      * MAYER POPULATION ANALYSIS *
                      *****************************

  NA   - Mulliken gross atomic population
  ZA   - Total nuclear charge
  QA   - Mulliken gross atomic charge
  VA   - Mayer's total valence
  BVA  - Mayer's bonded valence
  FA   - Mayer's free valence

  ATOM       NA         ZA         QA         VA         BVA        FA
  0 U     89.6390    92.0000     2.3610     4.1706     2.6769     1.4937
  1 O      8.7062     8.0000    -0.7062     1.9305     1.4389     0.4916
  2 C      5.2805     6.0000     0.7195     4.1085     3.7464     0.3620
  3 O      8.6737     8.0000    -0.6737     1.9394     1.4529     0.4865
  4 O      8.4846     8.0000    -0.4846     2.2022     1.7559     0.4463
  5 O      8.6080     8.0000    -0.6080     1.6716     1.0845     0.5872
  6 O      8.6080     8.0000    -0.6080     1.6715     1.0844     0.5871

  Mayer bond orders larger than 0.1
B(  0-U ,  1-O ) :   0.4496 B(  0-U ,  3-O ) :   0.4221 B(  0-U ,  5-O ) :   0.9341 
B(  0-U ,  6-O ) :   0.9340 B(  1-O ,  2-C ) :   0.9793 B(  2-C ,  3-O ) :   1.0164 
B(  2-C ,  4-O ) :   1.7898 


                *******************************************
                * RELAXED MP2 DENSITY POPULATION ANALYSIS *
                *******************************************

------------------------------------------------------------------------------
                           ORCA POPULATION ANALYSIS
------------------------------------------------------------------------------
Input electron density              ... /home/nikolayandreadi_2125/_scratch/MP2/UO2_CO3.pmp2re
BaseName (.gbw .S,...)              ... /home/nikolayandreadi_2125/_scratch/MP2/UO2_CO3

                    ********************************
                    * MULLIKEN POPULATION ANALYSIS *
                    ********************************

-----------------------
MULLIKEN ATOMIC CHARGES
-----------------------
   0 U :    1.765355
   1 O :   -0.555485
   2 C :    0.515790
   3 O :   -0.528577
   4 O :   -0.363845
   5 O :   -0.416636
   6 O :   -0.416602
Sum of atomic charges:    0.0000000

--------------------------------
MULLIKEN REDUCED ORBITAL CHARGES
--------------------------------
  0 U s       :    12.481395  s :    12.481395
      pz      :     9.775323  p :    29.685821
      px      :     9.934028
      py      :     9.976471
      dz2     :     6.250055  d :    31.611480
      dxz     :     6.487575
      dyz     :     6.466092
      dx2y2   :     6.119328
      dxy     :     6.288430
      f0      :     2.885619  f :    16.455948
      f+1     :     2.541262
      f-1     :     2.523287
      f+2     :     2.105926
      f-2     :     2.182493
      f+3     :     2.056081
      f-3     :     2.161280
  1 O s       :     3.930184  s :     3.930184
      pz      :     1.638292  p :     4.561449
      px      :     1.503696
      py      :     1.419461
      dz2     :     0.008978  d :     0.059660
      dxz     :     0.008904
      dyz     :     0.012088
      dx2y2   :     0.014162
      dxy     :     0.015528
      f0      :     0.000601  f :     0.004192
      f+1     :     0.000541
      f-1     :     0.000617
      f+2     :     0.000452
      f-2     :     0.000538
      f+3     :     0.000685
      f-3     :     0.000757
  2 C s       :     2.941277  s :     2.941277
      pz      :     0.802858  p :     2.192856
      px      :     0.666800
      py      :     0.723199
      dz2     :     0.004523  d :     0.316255
      dxz     :     0.089755
      dyz     :     0.043525
      dx2y2   :     0.079990
      dxy     :     0.098463
      f0      :     0.003779  f :     0.033821
      f+1     :     0.002010
      f-1     :     0.001491
      f+2     :     0.003576
      f-2     :     0.004453
      f+3     :     0.006342
      f-3     :     0.012170
  3 O s       :     3.928834  s :     3.928834
      pz      :     1.643795  p :     4.534570
      px      :     1.441345
      py      :     1.449430
      dz2     :     0.009205  d :     0.060867
      dxz     :     0.008665
      dyz     :     0.012315
      dx2y2   :     0.013117
      dxy     :     0.017565
      f0      :     0.000621  f :     0.004305
      f+1     :     0.000598
      f-1     :     0.000614
      f+2     :     0.000427
      f-2     :     0.000576
      f+3     :     0.000653
      f-3     :     0.000817
  4 O s       :     3.886120  s :     3.886120
      pz      :     1.408748  p :     4.413211
      px      :     1.286731
      py      :     1.717733
      dz2     :     0.008087  d :     0.059619
      dxz     :     0.017158
      dyz     :     0.005637
      dx2y2   :     0.014265
      dxy     :     0.014472
      f0      :     0.000571  f :     0.004895
      f+1     :     0.000604
      f-1     :     0.000361
      f+2     :     0.000909
      f-2     :     0.000405
      f+3     :     0.000956
      f-3     :     0.001089
  5 O s       :     3.999132  s :     3.999132
      pz      :     1.380204  p :     4.346112
      px      :     1.487603
      py      :     1.478305
      dz2     :     0.016178  d :     0.065879
      dxz     :     0.018505
      dyz     :     0.018073
      dx2y2   :     0.006432
      dxy     :     0.006691
      f0      :     0.001472  f :     0.005512
      f+1     :     0.001184
      f-1     :     0.001161
      f+2     :     0.000495
      f-2     :     0.000514
      f+3     :     0.000343
      f-3     :     0.000344
  6 O s       :     3.999126  s :     3.999126
      pz      :     1.379571  p :     4.346079
      px      :     1.488197
      py      :     1.478311
      dz2     :     0.016050  d :     0.065883
      dxz     :     0.018742
      dyz     :     0.018165
      dx2y2   :     0.006324
      dxy     :     0.006602
      f0      :     0.001502  f :     0.005513
      f+1     :     0.001177
      f-1     :     0.001183
      f+2     :     0.000475
      f-2     :     0.000494
      f+3     :     0.000341
      f-3     :     0.000341


                     *******************************
                     * LOEWDIN POPULATION ANALYSIS *
                     *******************************

----------------------
LOEWDIN ATOMIC CHARGES
----------------------
   0 U :    0.369483
   1 O :    0.086905
   2 C :   -0.634104
   3 O :    0.114931
   4 O :    0.124781
   5 O :   -0.030999
   6 O :   -0.030997

-------------------------------
LOEWDIN REDUCED ORBITAL CHARGES
-------------------------------
  0 U s       :    12.019094  s :    12.019094
      pz      :     9.779484  p :    29.703005
      px      :     9.950207
      py      :     9.973314
      dz2     :     6.752921  d :    32.521207
      dxz     :     6.558344
      dyz     :     6.581557
      dx2y2   :     6.180945
      dxy     :     6.447440
      f0      :     3.220617  f :    17.387210
      f+1     :     2.702918
      f-1     :     2.686446
      f+2     :     2.134163
      f-2     :     2.249638
      f+3     :     2.129004
      f-3     :     2.264424
  1 O s       :     3.369117  s :     3.369117
      pz      :     1.506648  p :     4.430512
      px      :     1.467623
      py      :     1.456242
      dz2     :     0.017514  d :     0.105551
      dxz     :     0.013741
      dyz     :     0.014858
      dx2y2   :     0.028252
      dxy     :     0.031185
      f0      :     0.000802  f :     0.007915
      f+1     :     0.000860
      f-1     :     0.001032
      f+2     :     0.000590
      f-2     :     0.000964
      f+3     :     0.001469
      f-3     :     0.002198
  2 C s       :     2.714126  s :     2.714126
      pz      :     0.763705  p :     2.571033
      px      :     0.961563
      py      :     0.845765
      dz2     :     0.083273  d :     1.148406
      dxz     :     0.213568
      dyz     :     0.124972
      dx2y2   :     0.322154
      dxy     :     0.404439
      f0      :     0.011879  f :     0.200540
      f+1     :     0.014757
      f-1     :     0.011575
      f+2     :     0.021508
      f-2     :     0.024688
      f+3     :     0.040020
      f-3     :     0.076112
  3 O s       :     3.357484  s :     3.357484
      pz      :     1.514527  p :     4.411637
      px      :     1.421301
      py      :     1.475809
      dz2     :     0.018161  d :     0.107756
      dxz     :     0.013921
      dyz     :     0.014463
      dx2y2   :     0.024100
      dxy     :     0.037110
      f0      :     0.000823  f :     0.008192
      f+1     :     0.000981
      f-1     :     0.001007
      f+2     :     0.000486
      f-2     :     0.001094
      f+3     :     0.001523
      f-3     :     0.002278
  4 O s       :     3.401972  s :     3.401972
      pz      :     1.326668  p :     4.370246
      px      :     1.465678
      py      :     1.577901
      dz2     :     0.013698  d :     0.093688
      dxz     :     0.021870
      dyz     :     0.005622
      dx2y2   :     0.031530
      dxy     :     0.020968
      f0      :     0.000939  f :     0.009312
      f+1     :     0.001463
      f-1     :     0.000441
      f+2     :     0.001433
      f-2     :     0.000463
      f+3     :     0.002523
      f-3     :     0.002050
  5 O s       :     3.552353  s :     3.552353
      pz      :     1.504068  p :     4.323718
      px      :     1.410364
      py      :     1.409286
      dz2     :     0.068840  d :     0.143225
      dxz     :     0.029464
      dyz     :     0.030356
      dx2y2   :     0.007018
      dxy     :     0.007547
      f0      :     0.004680  f :     0.011704
      f+1     :     0.002465
      f-1     :     0.002521
      f+2     :     0.000626
      f-2     :     0.000707
      f+3     :     0.000350
      f-3     :     0.000355
  6 O s       :     3.552343  s :     3.552343
      pz      :     1.505798  p :     4.323710
      px      :     1.408626
      py      :     1.409286
      dz2     :     0.070800  d :     0.143239
      dxz     :     0.027660
      dyz     :     0.030605
      dx2y2   :     0.006874
      dxy     :     0.007299
      f0      :     0.004938  f :     0.011705
      f+1     :     0.002246
      f-1     :     0.002586
      f+2     :     0.000592
      f-2     :     0.000648
      f+3     :     0.000346
      f-3     :     0.000349


                      *****************************
                      * MAYER POPULATION ANALYSIS *
                      *****************************

  NA   - Mulliken gross atomic population
  ZA   - Total nuclear charge
  QA   - Mulliken gross atomic charge
  VA   - Mayer's total valence
  BVA  - Mayer's bonded valence
  FA   - Mayer's free valence

  ATOM       NA         ZA         QA         VA         BVA        FA
  0 U     90.2346    92.0000     1.7654     4.6934     3.4180     1.2755
  1 O      8.5555     8.0000    -0.5555     2.1154     1.6551     0.4603
  2 C      5.4842     6.0000     0.5158     4.2772     3.9392     0.3380
  3 O      8.5286     8.0000    -0.5286     2.1193     1.6630     0.4563
  4 O      8.3638     8.0000    -0.3638     2.3539     1.9262     0.4276
  5 O      8.4166     8.0000    -0.4166     1.8127     1.2912     0.5215
  6 O      8.4166     8.0000    -0.4166     1.8126     1.2911     0.5215

  Mayer bond orders larger than 0.1
B(  0-U ,  1-O ) :   0.5991 B(  0-U ,  3-O ) :   0.5703 B(  0-U ,  5-O ) :   1.1390 
B(  0-U ,  6-O ) :   1.1388 B(  1-O ,  2-C ) :   1.0122 B(  2-C ,  3-O ) :   1.0377 
B(  2-C ,  4-O ) :   1.9083 


----------------------------------
MP2 DERIVATIVE INTEGRAL GENERATION
----------------------------------


Input Wavefunction Amplitudes       ... /home/nikolayandreadi_2125/_scratch/MP2/UO2_CO3.mp2tsaa.tmp.proc41
Input Correlated Electron Density   ... /home/nikolayandreadi_2125/_scratch/MP2/UO2_CO3.pmp2re
Input Energy Weighted Density       ... /home/nikolayandreadi_2125/_scratch/MP2/UO2_CO3.wmp2.tmp
Input SCF Electron Density          ... /home/nikolayandreadi_2125/_scratch/MP2/UO2_CO3.scfp.tmp

One-Electron Terms    ...
                        ... One-Electron Terms done
Prescreening matrices              ... done

Batch handling in the gradient evaluation:
Memory available                      ... 13500.0 MB
Memory per occupied orbital in Q2     ...   27.3 MB
Memory per occupied orbital in Q3     ...    0.1 MB
Total memory requirement per |i>      ...   27.4 MB
Max. Number of orbitals possible      ...    492
Number of orbitals treated per batch  ...     29
Number of batches to be done          ...      1
Batch   0: i=   40 ...    68

---------------------------------------
MP2 TOTAL ENERGY:   -28364.040578881 Eh
---------------------------------------

-----------------------------------
NORM OF THE MP2 GRADIENT:  0.000371
-----------------------------------

-------------------------   --------------------
FINAL SINGLE POINT ENERGY    -28364.040578880755
-------------------------   --------------------

                                *** OPTIMIZATION RUN DONE ***

                            ***************************************
                            *     ORCA property calculations      *
                            ***************************************

                                    ---------------------
                                    Active property flags
                                    ---------------------
   (+) Dipole Moment


------------------------------------------------------------------------------
                       ORCA ELECTRIC PROPERTIES CALCULATION
------------------------------------------------------------------------------

Dipole Moment Calculation                       ... on
Quadrupole Moment Calculation                   ... off
Polarizability Calculation                      ... off
GBWName                                         ... /home/nikolayandreadi_2125/_scratch/MP2/UO2_CO3.gbw
Electron density file                           ... /home/nikolayandreadi_2125/_scratch/MP2/UO2_CO3.scfp.tmp
The origin for moment calculation is the CENTER OF MASS  = (-4.566861, -0.209095  0.114686)

-------------
DIPOLE MOMENT
-------------
                                X             Y             Z
Electronic contribution:    -26.11452      -3.50035       0.77914
Nuclear contribution   :     22.04143       2.76434      -0.65750
                        -----------------------------------------
Total Dipole Moment    :     -4.07309      -0.73602       0.12164
                        -----------------------------------------
Magnitude (a.u.)       :      4.14084
Magnitude (Debye)      :     10.52519


                         *** MP2 UNRELAXED DENSITY ***

------------------------------------------------------------------------------
                       ORCA ELECTRIC PROPERTIES CALCULATION
------------------------------------------------------------------------------

Dipole Moment Calculation                       ... on
Quadrupole Moment Calculation                   ... off
Polarizability Calculation                      ... off
GBWName                                         ... /home/nikolayandreadi_2125/_scratch/MP2/UO2_CO3.gbw
Electron density file                           ... /home/nikolayandreadi_2125/_scratch/MP2/UO2_CO3.pmp2ur
The origin for moment calculation is the CENTER OF MASS  = (-4.566861, -0.209095  0.114686)

-------------
DIPOLE MOMENT
-------------
                                X             Y             Z
Electronic contribution:    -25.99258      -3.43433       0.77549
Nuclear contribution   :     22.04143       2.76434      -0.65750
                        -----------------------------------------
Total Dipole Moment    :     -3.95115      -0.67000       0.11799
                        -----------------------------------------
Magnitude (a.u.)       :      4.00929
Magnitude (Debye)      :     10.19079


                           *** MP2 RELAXED DENSITY ***

------------------------------------------------------------------------------
                       ORCA ELECTRIC PROPERTIES CALCULATION
------------------------------------------------------------------------------

Dipole Moment Calculation                       ... on
Quadrupole Moment Calculation                   ... off
Polarizability Calculation                      ... off
GBWName                                         ... /home/nikolayandreadi_2125/_scratch/MP2/UO2_CO3.gbw
Electron density file                           ... /home/nikolayandreadi_2125/_scratch/MP2/UO2_CO3.pmp2re
The origin for moment calculation is the CENTER OF MASS  = (-4.566861, -0.209095  0.114686)

-------------
DIPOLE MOMENT
-------------
                                X             Y             Z
Electronic contribution:    -25.51077      -3.29700       0.76109
Nuclear contribution   :     22.04143       2.76434      -0.65750
                        -----------------------------------------
Total Dipole Moment    :     -3.46934      -0.53267       0.10359
                        -----------------------------------------
Magnitude (a.u.)       :      3.51152
Magnitude (Debye)      :      8.92558


Timings for individual modules:

Sum of individual times         ...    22443.892 sec (= 374.065 min)
GTO integral calculation        ...      146.174 sec (=   2.436 min)   0.7 %
Relativistic integrals          ...       67.915 sec (=   1.132 min)   0.3 %
SCF iterations                  ...     2266.120 sec (=  37.769 min)  10.1 %
MP2 module                      ...    19947.268 sec (= 332.454 min)  88.9 %
Geometry relaxation             ...       16.414 sec (=   0.274 min)   0.1 %
                             ****ORCA TERMINATED NORMALLY****
TOTAL RUN TIME: 0 days 6 hours 14 minutes 16 seconds 554 msec
