
                                 *****************
                                 * O   R   C   A *
                                 *****************

           --- An Ab Initio, DFT and Semiempirical electronic structure package ---

                  #######################################################
                  #                        -***-                        #
                  #  Department of molecular theory and spectroscopy    #
                  #              Directorship: Frank Neese              #
                  # Max Planck Institute for Chemical Energy Conversion #
                  #                  D-45470 Muelheim/Ruhr              #
                  #                       Germany                       #
                  #                                                     #
                  #                  All rights reserved                #
                  #                        -***-                        #
                  #######################################################


                         Program Version 4.0.1.2 - RELEASE -


 With contributions from (in alphabetic order):
   Daniel Aravena         : Magnetic Properties
   Michael Atanasov       : Ab Initio Ligand Field Theory
   Ute Becker             : Parallelization
   Martin Brehm           : Molecular dynamics
   Dmytro Bykov           : SCF Hessian
   Vijay G. Chilkuri      : MRCI spin determinant printing
   Dipayan Datta          : RHF DLPNO-CCSD density
   Achintya Kumar Dutta   : EOM-CC, STEOM-CC
   Dmitry Ganyushin       : Spin-Orbit,Spin-Spin,Magnetic field MRCI
   Yang Guo               : DLPNO-NEVPT2, CIM, IAO-localization
   Andreas Hansen         : Spin unrestricted coupled pair/coupled cluster methods
   Lee Huntington         : MR-EOM, pCC
   Robert Izsak           : Overlap fitted RIJCOSX, COSX-SCS-MP3, EOM
   Christian Kollmar      : KDIIS, OOCD, Brueckner-CCSD(T), CCSD density
   Simone Kossmann        : Meta GGA functionals, TD-DFT gradient, OOMP2, MP2 Hessian
   Martin Krupicka        : AUTO-CI
   Dagmar Lenk            : GEPOL surface
   Dimitrios Liakos       : Extrapolation schemes; parallel MDCI
   Dimitrios Manganas     : ROCIS; embedding schemes
   Dimitrios Pantazis     : SARC Basis sets
   Taras Petrenko         : DFT Hessian,TD-DFT gradient, ASA, ECA, R-Raman, ABS, FL, XAS/XES, NRVS
   Peter Pinski           : DLPNO-MP2
   Christoph Reimann      : Effective Core Potentials
   Marius Retegan         : Local ZFS, SOC
   Christoph Riplinger    : Optimizer, TS searches, QM/MM, DLPNO-CCSD(T), (RO)-DLPNO pert. Triples
   Tobias Risthaus        : Range-separated hybrids, TD-DFT gradient, RPA, STAB
   Michael Roemelt        : Restricted open shell CIS
   Masaaki Saitow         : Open-shell DLPNO
   Barbara Sandhoefer     : DKH picture change effects
   Kantharuban Sivalingam : CASSCF convergence, NEVPT2, FIC-MRCI
   Georgi Stoychev        : AutoAux
   Boris Wezisla          : Elementary symmetry handling
   Frank Wennmohs         : Technical directorship


 We gratefully acknowledge several colleagues who have allowed us to
 interface, adapt or use parts of their codes:
   Stefan Grimme, W. Hujo, H. Kruse,             : VdW corrections, initial TS optimization,
                  C. Bannwarth                     DFT functionals, gCP, sTDA/sTD-DF
   Ed Valeev                                     : LibInt (2-el integral package), F12 methods
   Garnet Chan, S. Sharma, J. Yang, R. Olivares  : DMRG
   Ulf Ekstrom                                   : XCFun DFT Library
   Mihaly Kallay                                 : mrcc  (arbitrary order and MRCC methods)
   Andreas Klamt, Michael Diedenhofen            : otool_cosmo (COSMO solvation model)
   Jiri Pittner, Ondrej Demel                    : Mk-CCSD
   Frank Weinhold                                : gennbo (NPA and NBO analysis)
   Christopher J. Cramer and Donald G. Truhlar   : smd solvation model


 Your calculation uses the libint2 library for the computation of 2-el integrals
 For citations please refer to: http://libint.valeyev.net

 This ORCA versions uses:
   CBLAS   interface :  Fast vector & matrix operations
   LAPACKE interface :  Fast linear algebra routines
   SCALAPACK package :  Parallel linear algebra routines


Your calculation utilizes the basis: DKH-def2-TZVP
   Exponents from def2-TZVP [F. Weigend and R. Ahlrichs, Phys. Chem. Chem. Phys. 7, 3297 (2005)],
   recontracted for DKH2 by D. A. Pantazis.

Your calculation utilizes the auxiliary basis: SARC/J 
   decontracted def2/J up to Kr:
   F. Weigend, Phys. Chem. Chem. Phys. 8, 1057 (2006)
   and SARC auxiliary basis sets beyond Kr:
   D. A. Pantazis and F. Neese, J. Chem. Theory Comput. 5, 2229 (2009).
   D. A. Pantazis, X. Y. Chen, C. R. Landis and F. Neese, J. Chem. Theory Comput. 4, 908 (2008).
   D. A. Pantazis and F. Neese, Theor. Chem. Acc. 131, 1292 (2012).
   D. A. Pantazis and F. Neese, J. Chem. Theory Comput. 7, 677 (2011).

================================================================================
                                        WARNINGS
                       Please study these warnings very carefully!
================================================================================

Warning: TCutStore was < 0. Adjusted to Thresh (uncritical)

WARNING: In scalar relativistic gradient/hessian runs we need the one-center approximation
  ===> : %rel OneCenter is turned on

WARNING: The frozen-core approximation for MP2-gradient calculations is turned on by default.

WARNING: Geometry Optimization
  ===> : Switching off AutoStart
         For restart on a previous wavefunction, please use MOREAD

WARNING: Post HF methods need fully converged wavefunctions
  ===> : Setting SCFConvForced true
         You can overwrite this default with %scf ConvForced false 


INFO   : the flag for use of LIBINT has been found!

================================================================================
                                       INPUT FILE
================================================================================
NAME = /home/nikolayandreadi_2125/_scratch/MP2/UOH4.inp
|  1> !Opt MP2 DKH-def2-TZVP DKH SARC/J SlowConv
|  2> 
|  3> %pal
|  4> nproc 20
|  5> end
|  6> 
|  7> %maxcore 31500
|  8> 
|  9> %basis
| 10> newgto U "SARC-DKH-TZVP" end
| 11> end
| 12> 
| 13> %scf
| 14> MaxIter 2000
| 15> end
| 16> 
| 17> %method
| 18> Z_MaxIter 5000
| 19> end
| 20> 
| 21> * xyz 0 1
| 22>   O      1.505628   -2.488409    2.401467
| 23>   U      1.294683   -1.292756    0.713584
| 24>   O      3.143577   -0.393651    0.419528
| 25>   O     -0.258301    0.140065    0.791771
| 26>   O      1.029260   -2.590734   -0.882622
| 27>   H      1.039955   -3.288608   -1.538140
| 28>   H      4.001811   -0.094615    0.119855
| 29>   H     -1.031847    0.701428    0.730650
| 30>   H      1.777234   -3.105320    3.080807
| 31> **                         ****END OF INPUT****
================================================================================

                       *****************************
                       * Geometry Optimization Run *
                       *****************************

Geometry optimization settings:
Update method            Update   .... BFGS
Choice of coordinates    CoordSys .... Redundant Internals
Initial Hessian          InHess   .... Almoef's Model

Convergence Tolerances:
Energy Change            TolE     ....  5.0000e-06 Eh
Max. Gradient            TolMAXG  ....  3.0000e-04 Eh/bohr
RMS Gradient             TolRMSG  ....  1.0000e-04 Eh/bohr
Max. Displacement        TolMAXD  ....  4.0000e-03 bohr
RMS Displacement         TolRMSD  ....  2.0000e-03 bohr

------------------------------------------------------------------------------
                        ORCA OPTIMIZATION COORDINATE SETUP
------------------------------------------------------------------------------

The optimization will be done in new redundant internal coordinates
Making redundant internal coordinates   ...  (new redundants) done
Evaluating the initial hessian          ...  (Almloef) done
Evaluating the coordinates              ...  done
Calculating the B-matrix                .... done
Calculating the G-matrix                .... done
Diagonalizing the G-matrix              .... done
The first mode is                       ....    9
The number of degrees of freedom        ....   21

    -----------------------------------------------------------------
                    Redundant Internal Coordinates


    -----------------------------------------------------------------
         Definition                    Initial Value    Approx d2E/dq
    -----------------------------------------------------------------
      1. B(U   1,O   0)                  2.0792         0.149558   
      2. B(O   2,U   1)                  2.0768         0.150855   
      3. B(O   3,U   1)                  2.1144         0.131394   
      4. B(O   4,U   1)                  2.0744         0.152222   
      5. B(H   5,O   4)                  0.9575         0.524713   
      6. B(H   6,O   2)                  0.9570         0.525776   
      7. B(H   7,O   3)                  0.9577         0.524319   
      8. B(H   8,O   0)                  0.9570         0.525715   
      9. A(U   1,O   0,H   8)          167.3584         0.310942   
     10. A(O   0,U   1,O   2)          105.8771         0.299919   
     11. A(O   0,U   1,O   3)          115.7329         0.293428   
     12. A(O   2,U   1,O   4)          106.0123         0.300764   
     13. A(O   3,U   1,O   4)          111.0072         0.294246   
     14. A(O   2,U   1,O   3)          111.4524         0.293828   
     15. A(O   0,U   1,O   4)          106.1304         0.300351   
     16. A(U   1,O   2,H   6)          167.9620         0.311382   
     17. A(U   1,O   3,H   7)          171.1347         0.304402   
     18. A(U   1,O   4,H   5)          168.9330         0.311735   
     19. D(O   2,U   1,O   0,H   8)    -48.3044         0.001808   
     20. D(O   3,U   1,O   0,H   8)   -172.3034         0.001808   
     21. D(O   4,U   1,O   0,H   8)     64.0786         0.001808   
     22. D(H   6,O   2,U   1,O   4)     -0.3995         0.001813   
     23. D(H   6,O   2,U   1,O   3)   -121.2957         0.001813   
     24. D(H   6,O   2,U   1,O   0)    112.0659         0.001813   
     25. D(H   7,O   3,U   1,O   0)   -107.5352         0.001738   
     26. D(H   7,O   3,U   1,O   4)     13.4924         0.001738   
     27. D(H   7,O   3,U   1,O   2)    131.4212         0.001738   
     28. D(H   5,O   4,U   1,O   3)   -168.4720         0.001819   
     29. D(H   5,O   4,U   1,O   2)     70.3444         0.001819   
     30. D(H   5,O   4,U   1,O   0)    -41.9445         0.001819   
    -----------------------------------------------------------------

Number of atoms                         .... 9
Number of degrees of freedom            .... 30

         *************************************************************
         *                GEOMETRY OPTIMIZATION CYCLE   1            *
         *************************************************************
---------------------------------
CARTESIAN COORDINATES (ANGSTROEM)
---------------------------------
  O      1.505628   -2.488409    2.401467
  U      1.294683   -1.292756    0.713584
  O      3.143577   -0.393651    0.419528
  O     -0.258301    0.140065    0.791771
  O      1.029260   -2.590734   -0.882622
  H      1.039955   -3.288608   -1.538140
  H      4.001811   -0.094615    0.119855
  H     -1.031847    0.701428    0.730650
  H      1.777234   -3.105320    3.080807

----------------------------
CARTESIAN COORDINATES (A.U.)
----------------------------
  NO LB      ZA    FRAG     MASS         X           Y           Z
   0 O     8.0000    0    15.999    2.845225   -4.702412    4.538115
   1 U    92.0000    0   238.029    2.446596   -2.442955    1.348478
   2 O     8.0000    0    15.999    5.940500   -0.743893    0.792793
   3 O     8.0000    0    15.999   -0.488118    0.264684    1.496230
   4 O     8.0000    0    15.999    1.945020   -4.895778   -1.667914
   5 H     1.0000    0     1.008    1.965230   -6.214568   -2.906663
   6 H     1.0000    0     1.008    7.562327   -0.178796    0.226493
   7 H     1.0000    0     1.008   -1.949908    1.325507    1.380728
   8 H     1.0000    0     1.008    3.358486   -5.868204    5.821882

--------------------------------
INTERNAL COORDINATES (ANGSTROEM)
--------------------------------
 O      0   0   0     0.000000000000     0.00000000     0.00000000
 U      1   0   0     2.079190446093     0.00000000     0.00000000
 O      2   1   0     2.076840811280   105.87707762     0.00000000
 O      2   1   3     2.114438111950   115.73293100   236.00097024
 O      2   1   3     2.074384210278   106.13039586   112.38302587
 H      5   2   1     0.957520940358   168.93295086   318.05548099
 H      3   2   1     0.956970237249   167.96197713   112.06593454
 H      4   2   1     0.957725226005   171.13473267   252.46477883
 H      1   2   3     0.957001482108   167.35836366   311.69560973

---------------------------
INTERNAL COORDINATES (A.U.)
---------------------------
 O      0   0   0     0.000000000000     0.00000000     0.00000000
 U      1   0   0     3.929100523381     0.00000000     0.00000000
 O      2   1   0     3.924660357069   105.87707762     0.00000000
 O      2   1   3     3.995708958711   115.73293100   236.00097024
 O      2   1   3     3.920018053955   106.13039586   112.38302587
 H      5   2   1     1.809452344772   168.93295086   318.05548099
 H      3   2   1     1.808411666715   167.96197713   112.06593454
 H      4   2   1     1.809838388697   171.13473267   252.46477883
 H      1   2   3     1.808470710941   167.35836366   311.69560973

---------------------
BASIS SET INFORMATION
---------------------
There are 3 groups of distinct atoms

 Group   1 Type O   : 11s6p2d1f contracted to 6s3p2d1f pattern {611111/411/11/1}
 Group   2 Type U   : 29s20p16d12f contracted to 21s13p10d7f pattern {911111111111111111111/8111111111111/7111111111/6111111}
 Group   3 Type H   : 5s1p contracted to 3s1p pattern {311/1}

Atom   0O    basis set group =>   1
Atom   1U    basis set group =>   2
Atom   2O    basis set group =>   1
Atom   3O    basis set group =>   1
Atom   4O    basis set group =>   1
Atom   5H    basis set group =>   3
Atom   6H    basis set group =>   3
Atom   7H    basis set group =>   3
Atom   8H    basis set group =>   3

INFORMATION: There is an auxiliary basis set but the global RI flag is NOT set

-------------------------------
AUXILIARY BASIS SET INFORMATION
-------------------------------
There are 3 groups of distinct atoms

 Group   1 Type O   : 12s5p4d2f1g contracted to 12s5p4d2f1g pattern {111111111111/11111/1111/11/1}
 Group   2 Type U   : 33s10p8d6f4g2h1i contracted to 33s10p8d6f4g2h1i pattern {111111111111111111111111111111111/1111111111/11111111/111111/1111/11/1}
 Group   3 Type H   : 5s2p1d contracted to 5s2p1d pattern {11111/11/1}

Atom   0O    basis set group =>   1
Atom   1U    basis set group =>   2
Atom   2O    basis set group =>   1
Atom   3O    basis set group =>   1
Atom   4O    basis set group =>   1
Atom   5H    basis set group =>   3
Atom   6H    basis set group =>   3
Atom   7H    basis set group =>   3
Atom   8H    basis set group =>   3


           ************************************************************
           *        Program running with 20 parallel MPI-processes    *
           *              working on a common directory               *
           ************************************************************
------------------------------------------------------------------------------
                           ORCA GTO INTEGRAL CALCULATION
------------------------------------------------------------------------------

                         BASIS SET STATISTICS AND STARTUP INFO

 # of primitive gaussian shells          ...  181
 # of primitive gaussian functions       ...  469
 # of contracted shells                  ...  115
 # of contracted basis functions         ...  311
 Highest angular momentum                ...    3
 Maximum contraction depth               ...    9
 Integral package used                   ... LIBINT
 Integral threshhold            Thresh   ...  2.500e-11
 Primitive cut-off              TCut     ...  2.500e-12


------------------------------ INTEGRAL EVALUATION ----------------------------


 * One electron integrals 
 Pre-screening matrix                    ... done
 Shell pair data                         ... done (   0.001 sec)

------------------------------------------------------------------------------
                          ORCA RELATIVISTIC HAMILTONIAN
------------------------------------------------------------------------------

Relativistic Method            ... DKH
Order of DKH treatment         ...   2
Treatment of potential         ... V(e,N)
Eps parameter for DKH          ...   0.00000000010000
Nucleus model                  ... Point Nucleus
Speed of light used            ... 137.03598950000000


            ************************************************
            *        DOUGLAS-KROLL-HESS HAMILTONIAN        *
            *   Programmed by FN according to literature   *
            *        procedures. Special thanks to         *
            *       B.A. Hess, M. Reiher and A. Wolf       *
            *     University Erlangen-Nuernberg/Bonn       *
            ************************************************

Uncontracting the basis (first version)        ... done
Number of contracted basis functions           ...  311
Number of uncontracted basis functions         ...  469
Initializing the DKH file                      ... done
One center approximation for DKH is active
Finding unique atoms                      ... 3 atom types
 ATOMIC NUMBER   8
          ... doing integrals          ... Computing the DKH transformation
          ... Transforming V and pVp to p**2 space
          ... First transformation of V and pVp
          ... Second transformation of Veff
          ... Adding kinetic energy
          ... Back transformation of Veff to r-space
          ... Recontracting the H-matrix
          ... Computing the DKH correction to the H-matrix
          ... adding submatrics to 4 actual atoms
 ATOMIC NUMBER  92
          ... doing integrals          ... Computing the DKH transformation
          ... Transforming V and pVp to p**2 space
          ... First transformation of V and pVp
          ... Second transformation of Veff
          ... Adding kinetic energy
          ... Back transformation of Veff to r-space
          ... Recontracting the H-matrix
          ... Computing the DKH correction to the H-matrix
          ... adding submatrics to 1 actual atoms
 ATOMIC NUMBER   1
          ... doing integrals          ... Computing the DKH transformation
          ... Transforming V and pVp to p**2 space
          ... First transformation of V and pVp
          ... Second transformation of Veff
          ... Adding kinetic energy
          ... Back transformation of Veff to r-space
          ... Recontracting the H-matrix
          ... Computing the DKH correction to the H-matrix
          ... adding submatrics to 4 actual atoms
Storing DKH matrices                           ... done
Getting S**(-1/2)                              ... done
Reading the original H-matrix                  ... done
Adding DKH correction to the H-matrix          ... done
Storing the new modified H-matrix              ... done


           ************************************************************
           *        Program running with 20 parallel MPI-processes    *
           *              working on a common directory               *
           ************************************************************
-------------------------------------------------------------------------------
                                 ORCA SCF
-------------------------------------------------------------------------------

------------
SCF SETTINGS
------------
Hamiltonian:
 Ab initio Hamiltonian  Method          .... Hartree-Fock(GTOs)

Relativistic Settings:
 Scalar relativistic method             .... Douglas-Kroll-Hess
 Order of DKH procedure    Order        ....    2
 Mode of DKH-treatment                  .... V=V(e,N)
 Speed of light used       Velit        ....       137.035989
 Cutoff-constant           Eps          ....            1e-10 


General Settings:
 Integral files         IntName         .... /home/nikolayandreadi_2125/_scratch/MP2/UOH4
 Hartree-Fock type      HFTyp           .... RHF
 Total Charge           Charge          ....    0
 Multiplicity           Mult            ....    1
 Number of Electrons    NEL             ....  128
 Basis Dimension        Dim             ....  311
 Nuclear Repulsion      ENuc            ....    901.2447279574 Eh

Convergence Acceleration:
 DIIS                   CNVDIIS         .... on
   Start iteration      DIISMaxIt       ....     0
   Startup error        DIISStart       ....  0.200000
   # of expansion vecs  DIISMaxEq       ....     5
   Bias factor          DIISBfac        ....   1.050
   Max. coefficient     DIISMaxC        ....  10.000
 Newton-Raphson         CNVNR           .... off
 SOSCF                  CNVSOSCF        .... off
 Level Shifting         CNVShift        .... on
   Level shift para.    LevelShift      ....    0.2500
   Turn off err/grad.   ShiftErr        ....    0.0000
 Zerner damping         CNVZerner       .... off
 Static damping         CNVDamp         .... on
   Fraction old density DampFac         ....    0.8500
   Max. Damping (<1)    DampMax         ....    0.9800
   Min. Damping (>=0)   DampMin         ....    0.0000
   Turn off err/grad.   DampErr         ....    0.0300
 Fernandez-Rico         CNVRico         .... off

SCF Procedure:
 Maximum # iterations   MaxIter         ....  2000
 SCF integral mode      SCFMode         .... Direct
   Integral package                     .... LIBINT
 Reset frequeny         DirectResetFreq ....    20
 Integral Threshold     Thresh          ....  2.500e-11 Eh
 Primitive CutOff       TCut            ....  2.500e-12 Eh

Convergence Tolerance:
 Convergence Check Mode ConvCheckMode   .... Total+1el-Energy
 Convergence forced     ConvForced      .... 1
 Energy Change          TolE            ....  1.000e-08 Eh
 1-El. energy change                    ....  1.000e-05 Eh
 DIIS Error             TolErr          ....  5.000e-07


Diagonalization of the overlap matrix:
Smallest eigenvalue                        ... 4.147e-04
Time for diagonalization                   ...    0.020 sec
Threshold for overlap eigenvalues          ... 1.000e-08
Number of eigenvalues below threshold      ... 0
Time for construction of square roots      ...    0.013 sec
Total time needed                          ...    0.034 sec

-------------------
DFT GRID GENERATION
-------------------

General Integration Accuracy     IntAcc      ...  4.340
Radial Grid Type                 RadialGrid  ... Gauss-Chebyshev
Angular Grid (max. acc.)         AngularGrid ... Lebedev-110
Angular grid pruning method      GridPruning ... 3 (G Style)
Weight generation scheme         WeightScheme... Becke
Basis function cutoff            BFCut       ...    1.0000e-11
Integration weight cutoff        WCut        ...    1.0000e-14
Grids for H and He will be reduced by one unit

# of grid points (after initial pruning)     ...  13984 (   0.0 sec)
# of grid points (after weights+screening)   ...  13579 (   0.0 sec)
nearest neighbour list constructed           ...    0.0 sec
Grid point re-assignment to atoms done       ...    0.0 sec
Grid point division into batches done        ...    0.0 sec
Reduced shell lists constructed in    0.0 sec

Total number of grid points                  ...    13579
Total number of batches                      ...      217
Average number of points per batch           ...       62
Average number of grid points per atom       ...     1509
Average number of shells per batch           ...    55.50 (48.26%)
Average number of basis functions per batch  ...   157.67 (50.70%)
Average number of large shells per batch     ...    42.08 (75.83%)
Average number of large basis fcns per batch ...   118.08 (74.89%)
Maximum spatial batch extension              ...   8.48,  7.40,  8.64 au
Average spatial batch extension              ...   0.21,  0.20,  0.18 au

Time for grid setup =    0.074 sec

------------------------------
INITIAL GUESS: MODEL POTENTIAL
------------------------------
Loading DKH relativistic densities                 ... done
Calculating cut-offs                               ... done
Setting up the integral package                    ... done
Initializing the effective Hamiltonian             ... done
Starting the Coulomb interaction                   ... done (   0.0 sec)
Reading the grid                                   ... done
Mapping shells                                     ... done
Starting the XC term evaluation                    ... done (   0.0 sec)
Transforming the Hamiltonian                       ... done (   0.0 sec)
Diagonalizing the Hamiltonian                      ... done (   0.0 sec)
Back transforming the eigenvectors                 ... done (   0.0 sec)
Now organizing SCF variables                       ... done
                      ------------------
                      INITIAL GUESS DONE (   0.2 sec)
                      ------------------
--------------
SCF ITERATIONS
--------------
ITER       Energy         Delta-E        Max-DP      RMS-DP      [F,P]     Damp
               ***  Starting incremental Fock matrix formation  ***
  0 -28250.3483809686   0.000000000000 0.09622182  0.00099852  8.0211300 0.8500
  1 -28250.5385764213  -0.190195452727 0.06683304  0.00082896  6.8235395 0.8500
                               ***Turning on DIIS***
  2 -28250.6697412593  -0.131164837941 0.03710114  0.00060792  5.8046645 0.8500
  3 -28245.0908465264   5.578894732887 0.02972587  0.00038688  4.9378364 0.8500
  4 -28244.3325273926   0.758319133769 0.02852014  0.00033218  4.1992749 0.8500
  5 -28246.2930706652  -1.960543272562 0.02550327  0.00030202  3.5701911 0.8500
  6 -28247.4215867797  -1.128516114553 0.02441401  0.00027528  3.0350044 0.8500
  7 -28248.8517551847  -1.430168404913 0.02297900  0.00025055  2.5799190 0.8500
  8 -28248.8043671909   0.047387993771 0.02084215  0.00022588  2.1930976 0.8500
  9 -28248.7336770850   0.070690105909 0.01856344  0.00020206  1.8642619 0.8500
 10 -28248.9770314468  -0.243354361832 0.01644351  0.00017974  1.5847214 0.8500
 11 -28249.3358026368  -0.358771190011 0.01453253  0.00015919  1.3470968 0.8500
 12 -28249.6732874155  -0.337484778709 0.01280846  0.00014071  1.1451062 0.8500
 13 -28249.8950483945  -0.221760978933 0.01124096  0.00012445  0.9734056 0.8500
 14 -28250.0538382059  -0.158789811459 0.00982688  0.00011002  0.8274501 0.8500
 15 -28250.1993741348  -0.145535928918 0.00856833  0.00009709  0.7033785 0.8500
 16 -28250.3403507150  -0.140976580209 0.00745906  0.00008551  0.5979103 0.8500
 17 -28250.4685465872  -0.128195872145 0.00658076  0.00007520  0.5082566 0.8500
 18 -28250.5769404643  -0.108393877112 0.00588063  0.00006610  0.4320462 0.8500
 19 -28250.6673248817  -0.090384417403 0.00524884  0.00005808  0.3672632 0.8500
               *** Restarting incremental Fock matrix formation ***
                                   *** Resetting DIIS ***
 20 -28251.1955503539  -0.528225472146 0.00367427  0.00003665  0.3121940 0.8500
 21 -28250.9898041581   0.205746195777 0.00306889  0.00003289  0.2655644 0.8500
 22 -28250.9069375042   0.082866653829 0.00325463  0.00003362  0.2258410 0.8500
 23 -28250.9572227339  -0.050285229652 0.00327602  0.00003241  0.1920068 0.8500
 24 -28251.0018937142  -0.044670980275 0.00305720  0.00003017  0.1632225 0.8500
 25 -28251.0585943159  -0.056700601745 0.00274936  0.00002750  0.1387466 0.8500
 26 -28251.0713346570  -0.012740341059 0.00254767  0.00002524  0.1179421 0.8500
 27 -28251.0770916041  -0.005756947150 0.00236668  0.00002309  0.1002569 0.8500
 28 -28251.0902537995  -0.013162195373 0.00216558  0.00002095  0.0852232 0.8500
 29 -28251.1071881350  -0.016934335501 0.00195485  0.00001886  0.0724437 0.8500
 30 -28251.1238840669  -0.016695931874 0.00175055  0.00001692  0.0615806 0.8500
 31 -28251.1370801720  -0.013196105152 0.00156433  0.00001516  0.0523466 0.8500
 32 -28251.1477190292  -0.010638857177 0.00139657  0.00001358  0.0444972 0.8500
 33 -28251.1572193136  -0.009500284359 0.00124406  0.00001216  0.0378248 0.8500
 34 -28251.1660111740  -0.008791860440 0.00110511  0.00001089  0.0321529 0.8500
 35 -28251.1739716066  -0.007960432635 0.00652910  0.00006506  0.0273315 0.0000
 36 -28251.2273733352  -0.053401728514 0.00067854  0.00000888  0.0014085 0.0000
 37 -28251.2274624210  -0.000089085879 0.00065905  0.00001000  0.0013811 0.0000
 38 -28251.2227199899   0.004742431123 0.00100515  0.00001474  0.0013408 0.0000
 39 -28251.2251552289  -0.002435238992 0.00125174  0.00001764  0.0012810 0.0000
               *** Restarting incremental Fock matrix formation ***
                                   *** Resetting DIIS ***
 40 -28251.2275549922  -0.002399763274 0.00043721  0.00000623  0.0012535 0.0000
 41 -28251.2271435907   0.000411401492 0.00039993  0.00000573  0.0012210 0.0000
 42 -28251.2272771405  -0.000133549845 0.00050639  0.00000718  0.0012237 0.0000
 43 -28251.2284361638  -0.001159023268 0.00108011  0.00001518  0.0012123 0.0000
 44 -28251.2270729939   0.001363169868 0.00358425  0.00005002  0.0011585 0.0000
 45 -28251.2275707821  -0.000497788151 0.00109652  0.00001621  0.0011863 0.0000
 46 -28251.2273600039   0.000210778137 0.00429912  0.00006001  0.0010982 0.0000
 47 -28251.2274763458  -0.000116341853 0.00279235  0.00003879  0.0011196 0.0000
 48 -28251.2257152201   0.001761125663 0.00638875  0.00008848  0.0009651 0.0000
 49 -28251.2308162338  -0.005101013645 0.00057964  0.00001013  0.0009976 0.0000
 50 -28251.2246113338   0.006204900015 0.00846552  0.00011737  0.0005989 0.0000
 51 -28251.2437846827  -0.019173348966 0.00189210  0.00002661  0.0012671 0.0000
 52 -28251.2285025611   0.015282121672 0.00238024  0.00003352  0.0004957 0.0000
 53 -28251.2306949465  -0.002192385477 0.00225707  0.00003174  0.0004105 0.0000
 54 -28251.2327915682  -0.002096621654 0.00079572  0.00001182  0.0003512 0.0000
 55 -28251.2287622211   0.004029347056 0.00102484  0.00001473  0.0002071 0.0000
 56 -28251.2289499447  -0.000187723552 0.00113820  0.00001653  0.0002120 0.0000
 57 -28251.2291175620  -0.000167617298 0.00070926  0.00001040  0.0002181 0.0000
 58 -28251.2284846431   0.000632918847 0.00077363  0.00001167  0.0002288 0.0000
 59 -28251.2268694869   0.001615156256 0.00095546  0.00001467  0.0002310 0.0000
               *** Restarting incremental Fock matrix formation ***
                                   *** Resetting DIIS ***
 60 -28251.2278841868  -0.001014699963 0.00008091  0.00000182  0.0002364 0.0000
 61 -28251.2277978860   0.000086300864 0.00009546  0.00000159  0.0002443 0.0000
 62 -28251.2278026006  -0.000004714668 0.00010324  0.00000166  0.0002457 0.0000
 63 -28251.2277585209   0.000044079705 0.00011504  0.00000183  0.0002441 0.0000
 64 -28251.2276632503   0.000095270654 0.00016129  0.00000254  0.0002412 0.0000
 65 -28251.2273554943   0.000307755996 0.00029928  0.00000470  0.0002349 0.0000
 66 -28251.2275052129  -0.000149718657 0.00027897  0.00000441  0.0002306 0.0000
 67 -28251.2271688432   0.000336369780 0.00043915  0.00000694  0.0002264 0.0000
 68 -28251.2278064608  -0.000637617646 0.00011698  0.00000194  0.0002265 0.0000
 69 -28251.2252552436   0.002551217243 0.00146844  0.00002317  0.0002098 0.0000
 70 -28251.2284330703  -0.003177826737 0.00070094  0.00001084  0.0002433 0.0000
 71 -28251.2258970102   0.002536060092 0.00152835  0.00002409  0.0002198 0.0000
 72 -28251.2256106915   0.000286318747 0.00096205  0.00001563  0.0002277 0.0000
 73 -28251.2245730329   0.001037658538 0.00171250  0.00002758  0.0001893 0.0000
 74 -28251.2262176516  -0.001644618635 0.00034363  0.00000598  0.0002212 0.0000
 75 -28251.2248396293   0.001378022240 0.00211700  0.00003425  0.0001212 0.0000
 76 -28251.2300554023  -0.005215772937 0.00031645  0.00000554  0.0002277 0.0000
 77 -28251.2256458223   0.004409579975 0.00093230  0.00001545  0.0000920 0.0000
 78 -28251.2253192943   0.000326527959 0.00075098  0.00001263  0.0001107 0.0000
 79 -28251.2270336499  -0.001714355541 0.00040672  0.00000712  0.0000935 0.0000
               *** Restarting incremental Fock matrix formation ***
                                   *** Resetting DIIS ***
 80 -28251.2279152501  -0.000881600194 0.00002590  0.00000070  0.0000724 0.0000
 81 -28251.2277896528   0.000125597257 0.00003309  0.00000064  0.0000717 0.0000
 82 -28251.2278981808  -0.000108527947 0.00003280  0.00000059  0.0000721 0.0000
 83 -28251.2278661107   0.000032070016 0.00003428  0.00000061  0.0000712 0.0000
 84 -28251.2278667125  -0.000000601805 0.00004661  0.00000083  0.0000704 0.0000
 85 -28251.2276515161   0.000215196451 0.00008953  0.00000159  0.0000683 0.0000
 86 -28251.2277193608  -0.000067844670 0.00010367  0.00000184  0.0000660 0.0000
 87 -28251.2276725724   0.000046788373 0.00009680  0.00000174  0.0000647 0.0000
 88 -28251.2275191560   0.000153416353 0.00017938  0.00000321  0.0000624 0.0000
 89 -28251.2281017800  -0.000582623928 0.00003649  0.00000066  0.0000621 0.0000
 90 -28251.2269929439   0.001108836106 0.00030446  0.00000547  0.0000563 0.0000
 91 -28251.2273946555  -0.000401711601 0.00010663  0.00000201  0.0000612 0.0000
 92 -28251.2255522928   0.001842362642 0.00066419  0.00001209  0.0000510 0.0000
 93 -28251.2279371621  -0.002384869298 0.00029688  0.00000533  0.0000719 0.0000
 94 -28251.2266365268   0.001300635340 0.00053546  0.00000978  0.0000459 0.0000
 95 -28251.2261389414   0.000497585381 0.00034633  0.00000653  0.0000543 0.0000
 96 -28251.2268275671  -0.000688625758 0.00020515  0.00000397  0.0000436 0.0000
 97 -28251.2268212613   0.000006305880 0.00019765  0.00000388  0.0000383 0.0000
 98 -28251.2273103671  -0.000489105787 0.00011624  0.00000244  0.0000396 0.0000
 99 -28251.2268144072   0.000495959852 0.00023501  0.00000470  0.0000394 0.0000
               *** Restarting incremental Fock matrix formation ***
                                   *** Resetting DIIS ***
100 -28251.2279185659  -0.001104158739 0.00001532  0.00000036  0.0000418 0.0000
101 -28251.2278123035   0.000106262480 0.00001363  0.00000025  0.0000391 0.0000
102 -28251.2277969053   0.000015398196 0.00001300  0.00000020  0.0000389 0.0000
103 -28251.2279392698  -0.000142364570 0.00001462  0.00000022  0.0000391 0.0000
104 -28251.2278671466   0.000072123268 0.00001751  0.00000026  0.0000391 0.0000
105 -28251.2278526111   0.000014535453 0.00002746  0.00000040  0.0000386 0.0000
106 -28251.2277777572   0.000074853895 0.00005197  0.00000076  0.0000373 0.0000
107 -28251.2278830238  -0.000105266601 0.00003401  0.00000050  0.0000369 0.0000
108 -28251.2276510256   0.000231998245 0.00009831  0.00000144  0.0000356 0.0000
109 -28251.2279220721  -0.000271046531 0.00002934  0.00000042  0.0000366 0.0000
110 -28251.2277798344   0.000142237717 0.00011777  0.00000171  0.0000344 0.0000
111 -28251.2276284568   0.000151377568 0.00009096  0.00000135  0.0000353 0.0000
112 -28251.2275455741   0.000082882736 0.00017998  0.00000265  0.0000326 0.0000
113 -28251.2278550323  -0.000309458221 0.00002977  0.00000043  0.0000330 0.0000
114 -28251.2274220817   0.000432950575 0.00025807  0.00000378  0.0000256 0.0000
115 -28251.2275521430  -0.000130061278 0.00014573  0.00000221  0.0000323 0.0000
116 -28251.2273505918   0.000201551233 0.00022412  0.00000335  0.0000246 0.0000
117 -28251.2278437996  -0.000493207837 0.00001582  0.00000034  0.0000280 0.0000
118 -28251.2272921489   0.000551650679 0.00023580  0.00000351  0.0000134 0.0000
119 -28251.2274071860  -0.000115037066 0.00009132  0.00000144  0.0000242 0.0000
               *** Restarting incremental Fock matrix formation ***
                                   *** Resetting DIIS ***
120 -28251.2279191681  -0.000511982122 0.00000482  0.00000013  0.0000151 0.0000
121 -28251.2278744297   0.000044738445 0.00000540  0.00000011  0.0000139 0.0000
122 -28251.2279057459  -0.000031316231 0.00000517  0.00000010  0.0000135 0.0000
123 -28251.2279200089  -0.000014262951 0.00000536  0.00000009  0.0000138 0.0000
124 -28251.2279051330   0.000014875819 0.00000648  0.00000011  0.0000136 0.0000
125 -28251.2278881653   0.000016967704 0.00001045  0.00000018  0.0000135 0.0000
126 -28251.2278573200   0.000030845298 0.00002050  0.00000035  0.0000132 0.0000
127 -28251.2279078103  -0.000050490264 0.00000922  0.00000016  0.0000133 0.0000
128 -28251.2277474049   0.000160405369 0.00004781  0.00000082  0.0000126 0.0000
129 -28251.2279433296  -0.000195924702 0.00002292  0.00000039  0.0000136 0.0000
130 -28251.2278357436   0.000107586075 0.00004834  0.00000083  0.0000124 0.0000
131 -28251.2277488135   0.000086930046 0.00003834  0.00000067  0.0000129 0.0000
132 -28251.2277039325   0.000044880995 0.00006427  0.00000112  0.0000118 0.0000
133 -28251.2277832246  -0.000079292073 0.00001631  0.00000031  0.0000118 0.0000
134 -28251.2275306200   0.000252604634 0.00013789  0.00000241  0.0000090 0.0000
135 -28251.2280009036  -0.000470283663 0.00003818  0.00000065  0.0000141 0.0000
136 -28251.2276442856   0.000356618071 0.00008879  0.00000156  0.0000080 0.0000
137 -28251.2275215503   0.000122735259 0.00008028  0.00000144  0.0000093 0.0000
138 -28251.2277236722  -0.000202121915 0.00001852  0.00000037  0.0000089 0.0000
139 -28251.2277013995   0.000022272685 0.00005990  0.00000109  0.0000074 0.0000
               *** Restarting incremental Fock matrix formation ***
                                   *** Resetting DIIS ***
140 -28251.2279192831  -0.000217883618 0.00000322  0.00000007  0.0000084 0.0000
141 -28251.2279050156   0.000014267549 0.00000252  0.00000005  0.0000074 0.0000
142 -28251.2279177199  -0.000012704302 0.00000265  0.00000004  0.0000071 0.0000
143 -28251.2279453890  -0.000027669077 0.00000140  0.00000002  0.0000072 0.0000
144 -28251.2279170419   0.000028347036 0.00000258  0.00000004  0.0000073 0.0000
145 -28251.2279142779   0.000002764082 0.00000357  0.00000005  0.0000073 0.0000
146 -28251.2279032541   0.000011023727 0.00000653  0.00000010  0.0000071 0.0000
147 -28251.2279110011  -0.000007746941 0.00000833  0.00000012  0.0000068 0.0000
148 -28251.2279026229   0.000008378123 0.00000788  0.00000012  0.0000068 0.0000
149 -28251.2278995015   0.000003121408 0.00001330  0.00000020  0.0000066 0.0000
150 -28251.2279183313  -0.000018829727 0.00000328  0.00000005  0.0000066 0.0000
151 -28251.2278253804   0.000092950824 0.00004306  0.00000063  0.0000061 0.0000
152 -28251.2279372245  -0.000111844089 0.00002083  0.00000030  0.0000069 0.0000
153 -28251.2278514104   0.000085814092 0.00004356  0.00000064  0.0000063 0.0000
154 -28251.2278383716   0.000013038862 0.00002691  0.00000041  0.0000064 0.0000
155 -28251.2277992681   0.000039103470 0.00004469  0.00000067  0.0000052 0.0000
156 -28251.2278531684  -0.000053900338 0.00001408  0.00000022  0.0000058 0.0000
157 -28251.2277844823   0.000068686160 0.00005283  0.00000079  0.0000034 0.0000
158 -28251.2278748744  -0.000090392128 0.00000204  0.00000005  0.0000056 0.0000
159 -28251.2278439391   0.000030935284 0.00003188  0.00000048  0.0000030 0.0000
               *** Restarting incremental Fock matrix formation ***
                                   *** Resetting DIIS ***
160 -28251.2279193040  -0.000075364907 0.00000116  0.00000003  0.0000035 0.0000
161 -28251.2279094608   0.000009843185 0.00000119  0.00000002  0.0000032 0.0000
162 -28251.2279176217  -0.000008160856 0.00000114  0.00000002  0.0000031 0.0000
163 -28251.2279200331  -0.000002411420 0.00000116  0.00000002  0.0000031 0.0000
164 -28251.2279167201   0.000003313049 0.00000139  0.00000002  0.0000031 0.0000
165 -28251.2279139309   0.000002789191 0.00000214  0.00000003  0.0000031 0.0000
166 -28251.2279082847   0.000005646216 0.00000433  0.00000007  0.0000030 0.0000
167 -28251.2279170828  -0.000008798179 0.00000219  0.00000003  0.0000030 0.0000
168 -28251.2279182184  -0.000001135548 0.00000166  0.00000003  0.0000029 0.0000
169 -28251.2279154443   0.000002774057 0.00000241  0.00000004  0.0000028 0.0000
170 -28251.2279135785   0.000001865843 0.00000245  0.00000004  0.0000028 0.0000
171 -28251.2279109837   0.000002594756 0.00000361  0.00000006  0.0000027 0.0000
172 -28251.2279110422  -0.000000058455 0.00000489  0.00000008  0.0000027 0.0000
173 -28251.2279207774  -0.000009735217 0.00000062  0.00000001  0.0000027 0.0000
174 -28251.2278932842   0.000027493195 0.00001111  0.00000017  0.0000024 0.0000
175 -28251.2279098285  -0.000016544265 0.00000082  0.00000001  0.0000027 0.0000
176 -28251.2278702348   0.000039593662 0.00002143  0.00000034  0.0000022 0.0000
177 -28251.2279236616  -0.000053426800 0.00000708  0.00000011  0.0000028 0.0000
178 -28251.2278776021   0.000046059533 0.00001842  0.00000029  0.0000020 0.0000
179 -28251.2278652622   0.000012339857 0.00001382  0.00000022  0.0000024 0.0000
               *** Restarting incremental Fock matrix formation ***
                                   *** Resetting DIIS ***
180 -28251.2279193075  -0.000054045249 0.00000082  0.00000002  0.0000020 0.0000
181 -28251.2279170884   0.000002219058 0.00000074  0.00000001  0.0000014 0.0000
182 -28251.2279160554   0.000001033070 0.00000048  0.00000001  0.0000014 0.0000
183 -28251.2279225640  -0.000006508613 0.00000043  0.00000001  0.0000014 0.0000
184 -28251.2279219307   0.000000633274 0.00000037  0.00000001  0.0000014 0.0000
185 -28251.2279215262   0.000000404521 0.00000032  0.00000001  0.0000015 0.0000
186 -28251.2279221298  -0.000000603657 0.00000021  0.00000000  0.0000015 0.0000
187 -28251.2279212573   0.000000872486 0.00000010  0.00000000  0.0000015 0.0000
188 -28251.2279192193   0.000002037996 0.00000130  0.00000002  0.0000015 0.0000
189 -28251.2279205294  -0.000001310011 0.00000023  0.00000000  0.0000015 0.0000
190 -28251.2279211496  -0.000000620246 0.00000012  0.00000000  0.0000015 0.0000
191 -28251.2279212412  -0.000000091593 0.00000015  0.00000000  0.0000015 0.0000
192 -28251.2279211000   0.000000141179 0.00000022  0.00000000  0.0000015 0.0000
193 -28251.2279195184   0.000001581586 0.00000095  0.00000002  0.0000015 0.0000
194 -28251.2279198130  -0.000000294585 0.00000029  0.00000000  0.0000014 0.0000
195 -28251.2279203818  -0.000000568787 0.00000021  0.00000000  0.0000015 0.0000
196 -28251.2279205925  -0.000000210664 0.00000026  0.00000000  0.0000015 0.0000
                 **** Energy Check signals convergence ****

               *****************************************************
               *                     SUCCESS                       *
               *           SCF CONVERGED AFTER 197 CYCLES          *
               *****************************************************


----------------
TOTAL SCF ENERGY
----------------

Total Energy       :       -28251.22792059 Eh         -768754.99447 eV

Components:
Nuclear Repulsion  :          901.24472796 Eh           24524.11583 eV
Electronic Energy  :       -29152.47264855 Eh         -793279.11030 eV
One Electron Energy:       -40155.57567879 Eh        -1092688.76544 eV
Two Electron Energy:        11003.10303023 Eh          299409.65515 eV

Virial components:
Potential Energy   :       -80323.25529003 Eh        -2185706.89563 eV
Kinetic Energy     :        52072.02736944 Eh         1416951.90117 eV
Virial Ratio       :            1.54254135


---------------
SCF CONVERGENCE
---------------

  Last Energy change         ...   -2.2737e-09  Tolerance :   1.0000e-08
  Last MAX-Density change    ...    4.3721e-07  Tolerance :   1.0000e-07
  Last RMS-Density change    ...    5.6976e-09  Tolerance :   5.0000e-09
  Last DIIS Error            ...    1.4593e-06  Tolerance :   5.0000e-07

             **** THE GBW FILE WAS UPDATED (/home/nikolayandreadi_2125/_scratch/MP2/UOH4.gbw) ****
             **** DENSITY FILE WAS UPDATED (/home/nikolayandreadi_2125/_scratch/MP2/UOH4.scfp.tmp) ****
             **** ENERGY FILE WAS UPDATED (/home/nikolayandreadi_2125/_scratch/MP2/UOH4.en.tmp) ****
----------------
ORBITAL ENERGIES
----------------

  NO   OCC          E(Eh)            E(eV) 
   0   2.0000   -4260.464701   -115933.1385 
   1   2.0000    -804.412085    -21889.1656 
   2   2.0000    -675.067164    -18369.5114 
   3   2.0000    -675.066329    -18369.4887 
   4   2.0000    -675.065925    -18369.4777 
   5   2.0000    -206.457266     -5617.9878 
   6   2.0000    -169.839513     -4621.5681 
   7   2.0000    -169.836528     -4621.4869 
   8   2.0000    -169.835014     -4621.4457 
   9   2.0000    -135.270584     -3680.8997 
  10   2.0000    -135.269738     -3680.8767 
  11   2.0000    -135.269101     -3680.8594 
  12   2.0000    -135.265896     -3680.7722 
  13   2.0000    -135.265810     -3680.7698 
  14   2.0000     -54.434921     -1481.2495 
  15   2.0000     -42.197152     -1148.2429 
  16   2.0000     -42.191444     -1148.0876 
  17   2.0000     -42.188537     -1148.0084 
  18   2.0000     -28.954927      -787.9036 
  19   2.0000     -28.954265      -787.8856 
  20   2.0000     -28.950928      -787.7948 
  21   2.0000     -28.945906      -787.6581 
  22   2.0000     -28.944569      -787.6218 
  23   2.0000     -20.542339      -558.9855 
  24   2.0000     -20.540720      -558.9414 
  25   2.0000     -20.540716      -558.9413 
  26   2.0000     -20.534806      -558.7805 
  27   2.0000     -15.194714      -413.4692 
  28   2.0000     -15.171170      -412.8285 
  29   2.0000     -15.170986      -412.8235 
  30   2.0000     -15.170299      -412.8048 
  31   2.0000     -15.167426      -412.7266 
  32   2.0000     -15.165046      -412.6619 
  33   2.0000     -15.160270      -412.5319 
  34   2.0000     -12.732460      -346.4678 
  35   2.0000      -8.821590      -240.0477 
  36   2.0000      -8.812040      -239.7878 
  37   2.0000      -8.807335      -239.6598 
  38   2.0000      -4.294440      -116.8576 
  39   2.0000      -4.294019      -116.8462 
  40   2.0000      -4.293762      -116.8392 
  41   2.0000      -4.265605      -116.0730 
  42   2.0000      -4.265590      -116.0726 
  43   2.0000      -2.218387       -60.3654 
  44   2.0000      -1.333786       -36.2942 
  45   2.0000      -1.333113       -36.2758 
  46   2.0000      -1.330550       -36.2061 
  47   2.0000      -1.275347       -34.7039 
  48   2.0000      -1.108135       -30.1539 
  49   2.0000      -1.106016       -30.0962 
  50   2.0000      -1.103615       -30.0309 
  51   2.0000      -0.673224       -18.3194 
  52   2.0000      -0.637350       -17.3432 
  53   2.0000      -0.633940       -17.2504 
  54   2.0000      -0.629646       -17.1335 
  55   2.0000      -0.507642       -13.8136 
  56   2.0000      -0.506165       -13.7734 
  57   2.0000      -0.482381       -13.1263 
  58   2.0000      -0.480537       -13.0761 
  59   2.0000      -0.477801       -13.0016 
  60   2.0000      -0.472040       -12.8449 
  61   2.0000      -0.467818       -12.7300 
  62   2.0000      -0.466132       -12.6841 
  63   2.0000      -0.347550        -9.4573 
  64   0.0000       0.026179         0.7124 
  65   0.0000       0.121077         3.2947 
  66   0.0000       0.125432         3.4132 
  67   0.0000       0.128927         3.5083 
  68   0.0000       0.135440         3.6855 
  69   0.0000       0.144787         3.9399 
  70   0.0000       0.145532         3.9601 
  71   0.0000       0.146531         3.9873 
  72   0.0000       0.161813         4.4031 
  73   0.0000       0.165098         4.4926 
  74   0.0000       0.184232         5.0132 
  75   0.0000       0.185966         5.0604 
  76   0.0000       0.186851         5.0845 
  77   0.0000       0.219197         5.9647 
  78   0.0000       0.222986         6.0678 
  79   0.0000       0.223962         6.0943 
  80   0.0000       0.225130         6.1261 
  81   0.0000       0.228414         6.2154 
  82   0.0000       0.230920         6.2836 
  83   0.0000       0.233793         6.3618 
  84   0.0000       0.237502         6.4628 
  85   0.0000       0.238322         6.4851 
  86   0.0000       0.317945         8.6517 
  87   0.0000       0.321761         8.7556 
  88   0.0000       0.324173         8.8212 
  89   0.0000       0.339548         9.2396 
  90   0.0000       0.534885        14.5550 
  91   0.0000       0.538844        14.6627 
  92   0.0000       0.544308        14.8114 
  93   0.0000       0.550827        14.9888 
  94   0.0000       0.568701        15.4751 
  95   0.0000       0.579892        15.7797 
  96   0.0000       0.585253        15.9255 
  97   0.0000       0.597263        16.2523 
  98   0.0000       0.609848        16.5948 
  99   0.0000       0.612538        16.6680 
 100   0.0000       0.617123        16.7928 
 101   0.0000       0.621180        16.9032 
 102   0.0000       0.626373        17.0445 
 103   0.0000       0.676330        18.4039 
 104   0.0000       0.679737        18.4966 
 105   0.0000       0.681894        18.5553 
 106   0.0000       0.705423        19.1955 
 107   0.0000       0.710091        19.3226 
 108   0.0000       0.713344        19.4111 
 109   0.0000       0.742634        20.2081 
 110   0.0000       0.747408        20.3380 
 111   0.0000       0.752759        20.4836 
 112   0.0000       0.773863        21.0579 
 113   0.0000       0.781087        21.2544 
 114   0.0000       0.792029        21.5522 
 115   0.0000       0.803297        21.8588 
 116   0.0000       0.808788        22.0082 
 117   0.0000       0.811190        22.0736 
 118   0.0000       0.958796        26.0902 
 119   0.0000       0.981924        26.7195 
 120   0.0000       1.011462        27.5233 
 121   0.0000       1.034406        28.1476 
 122   0.0000       1.245228        33.8844 
 123   0.0000       1.256717        34.1970 
 124   0.0000       1.296319        35.2746 
 125   0.0000       1.312282        35.7090 
 126   0.0000       1.333264        36.2800 
 127   0.0000       1.340222        36.4693 
 128   0.0000       1.371723        37.3265 
 129   0.0000       1.428159        38.8622 
 130   0.0000       1.431206        38.9451 
 131   0.0000       1.446878        39.3716 
 132   0.0000       1.618245        44.0347 
 133   0.0000       1.649523        44.8858 
 134   0.0000       1.661609        45.2147 
 135   0.0000       1.670512        45.4569 
 136   0.0000       1.681725        45.7621 
 137   0.0000       1.696139        46.1543 
 138   0.0000       1.702681        46.3323 
 139   0.0000       1.724306        46.9208 
 140   0.0000       1.756422        47.7947 
 141   0.0000       1.804120        49.0926 
 142   0.0000       1.814487        49.3747 
 143   0.0000       1.820265        49.5319 
 144   0.0000       1.858068        50.5606 
 145   0.0000       1.871009        50.9128 
 146   0.0000       1.881654        51.2024 
 147   0.0000       1.899183        51.6794 
 148   0.0000       1.909699        51.9656 
 149   0.0000       1.933439        52.6115 
 150   0.0000       1.971227        53.6398 
 151   0.0000       1.992478        54.2181 
 152   0.0000       2.029715        55.2314 
 153   0.0000       2.086525        56.7772 
 154   0.0000       2.090491        56.8851 
 155   0.0000       2.097302        57.0705 
 156   0.0000       2.161963        58.8300 
 157   0.0000       2.166692        58.9587 
 158   0.0000       2.265193        61.6390 
 159   0.0000       2.311245        62.8922 
 160   0.0000       2.321756        63.1782 
 161   0.0000       2.553012        69.4710 
 162   0.0000       2.576156        70.1008 
 163   0.0000       2.579565        70.1935 
 164   0.0000       2.591158        70.5090 
 165   0.0000       2.612059        71.0777 
 166   0.0000       2.624386        71.4132 
 167   0.0000       2.644392        71.9576 
 168   0.0000       2.649166        72.0875 
 169   0.0000       2.662483        72.4498 
 170   0.0000       2.958515        80.5053 
 171   0.0000       3.013880        82.0119 
 172   0.0000       3.021935        82.2310 
 173   0.0000       3.039404        82.7064 
 174   0.0000       3.089512        84.0699 
 175   0.0000       3.095381        84.2296 
 176   0.0000       3.103427        84.4486 
 177   0.0000       3.112903        84.7064 
 178   0.0000       3.115487        84.7767 
 179   0.0000       3.140140        85.4476 
 180   0.0000       3.142732        85.5181 
 181   0.0000       3.153087        85.7998 
 182   0.0000       3.233607        87.9909 
 183   0.0000       3.296470        89.7015 
 184   0.0000       3.313855        90.1746 
 185   0.0000       3.324560        90.4659 
 186   0.0000       3.706202       100.8509 
 187   0.0000       3.766766       102.4989 
 188   0.0000       3.841150       104.5230 
 189   0.0000       3.845137       104.6315 
 190   0.0000       4.016206       109.2865 
 191   0.0000       4.035510       109.8118 
 192   0.0000       4.045942       110.0957 
 193   0.0000       4.056186       110.3744 
 194   0.0000       4.143222       112.7428 
 195   0.0000       4.149233       112.9064 
 196   0.0000       4.155034       113.0642 
 197   0.0000       4.292569       116.8067 
 198   0.0000       4.322491       117.6209 
 199   0.0000       4.337527       118.0301 
 200   0.0000       4.481581       121.9500 
 201   0.0000       5.556362       151.1963 
 202   0.0000       5.561885       151.3466 
 203   0.0000       5.565060       151.4330 
 204   0.0000       5.568501       151.5266 
 205   0.0000       5.581394       151.8774 
 206   0.0000       5.592489       152.1794 
 207   0.0000       5.600258       152.3908 
 208   0.0000       5.603050       152.4667 
 209   0.0000       5.605649       152.5375 
 210   0.0000       5.607847       152.5973 
 211   0.0000       5.608663       152.6195 
 212   0.0000       5.610901       152.6804 
 213   0.0000       5.614325       152.7736 
 214   0.0000       5.615452       152.8042 
 215   0.0000       5.617977       152.8729 
 216   0.0000       5.625319       153.0727 
 217   0.0000       5.907642       160.7551 
 218   0.0000       5.914067       160.9299 
 219   0.0000       5.942579       161.7058 
 220   0.0000       5.944217       161.7504 
 221   0.0000       5.944826       161.7669 
 222   0.0000       5.956840       162.0939 
 223   0.0000       5.958695       162.1443 
 224   0.0000       5.963991       162.2885 
 225   0.0000       6.767396       184.1502 
 226   0.0000       6.770256       184.2280 
 227   0.0000       6.773203       184.3082 
 228   0.0000       6.790036       184.7663 
 229   0.0000       6.795134       184.9050 
 230   0.0000       6.826915       185.7698 
 231   0.0000       6.827320       185.7808 
 232   0.0000       6.830761       185.8745 
 233   0.0000       6.871797       186.9911 
 234   0.0000       6.889844       187.4822 
 235   0.0000       6.905149       187.8987 
 236   0.0000       6.921177       188.3348 
 237   0.0000       7.030914       191.3209 
 238   0.0000       7.031898       191.3477 
 239   0.0000       7.053029       191.9227 
 240   0.0000       7.066353       192.2852 
 241   0.0000       7.068853       192.3533 
 242   0.0000       7.108121       193.4218 
 243   0.0000       7.123369       193.8367 
 244   0.0000       7.138691       194.2537 
 245   0.0000       7.625177       207.4916 
 246   0.0000       7.639054       207.8692 
 247   0.0000       7.641266       207.9294 
 248   0.0000       7.650778       208.1883 
 249   0.0000       8.405889       228.7359 
 250   0.0000       8.410999       228.8749 
 251   0.0000       8.417064       229.0399 
 252   0.0000       9.167566       249.4622 
 253   0.0000       9.170658       249.5463 
 254   0.0000       9.352157       254.4851 
 255   0.0000       9.401828       255.8368 
 256   0.0000       9.415891       256.2194 
 257   0.0000       9.924224       270.0519 
 258   0.0000      13.822793       376.1373 
 259   0.0000      13.835476       376.4824 
 260   0.0000      13.840604       376.6220 
 261   0.0000      13.843304       376.6954 
 262   0.0000      13.856755       377.0615 
 263   0.0000      13.862530       377.2186 
 264   0.0000      13.965454       380.0193 
 265   0.0000      15.457484       420.6195 
 266   0.0000      15.466528       420.8656 
 267   0.0000      15.472949       421.0404 
 268   0.0000      15.499463       421.7618 
 269   0.0000      44.419963      1208.7286 
 270   0.0000      46.913345      1276.5770 
 271   0.0000      46.915131      1276.6256 
 272   0.0000      47.002133      1278.9931 
 273   0.0000      47.024628      1279.6052 
 274   0.0000      47.031696      1279.7975 
 275   0.0000      47.641902      1296.4021 
 276   0.0000      47.652237      1296.6833 
 277   0.0000      47.658257      1296.8471 
 278   0.0000      53.394116      1452.9278 
 279   0.0000      53.400071      1453.0898 
 280   0.0000      53.402679      1453.1608 
 281   0.0000      53.406687      1453.2698 
 282   0.0000      53.412163      1453.4188 
 283   0.0000      53.414973      1453.4953 
 284   0.0000      53.465674      1454.8750 
 285   0.0000      79.091448      2152.1877 
 286   0.0000      79.100389      2152.4310 
 287   0.0000      79.108633      2152.6553 
 288   0.0000      79.136336      2153.4092 
 289   0.0000     205.321240      5587.0750 
 290   0.0000     236.149926      6425.9662 
 291   0.0000     236.150849      6425.9913 
 292   0.0000     236.202884      6427.4072 
 293   0.0000     236.217291      6427.7993 
 294   0.0000     236.221109      6427.9032 
 295   0.0000     264.568448      7199.2735 
 296   0.0000     264.572296      7199.3782 
 297   0.0000     264.575703      7199.4709 
 298   0.0000     792.717671     21570.9445 
 299   0.0000    1085.878079     29548.2447 
 300   0.0000    1085.879804     29548.2917 
 301   0.0000    1085.881747     29548.3445 
 302   0.0000    2430.952171     66149.5716 
 303   0.0000    3783.599110    102956.9660 
 304   0.0000    3783.599611    102956.9797 
 305   0.0000    3783.600702    102957.0093 
 306   0.0000    6095.903970    165877.9801 
 307   0.0000   13027.522441    354496.9079 
 308   0.0000   24922.430053    678173.7994 
 309   0.0000   43992.653324   1197100.9564 
 310   0.0000   84401.764228   2296688.7660 

                    ********************************
                    * MULLIKEN POPULATION ANALYSIS *
                    ********************************

-----------------------
MULLIKEN ATOMIC CHARGES
-----------------------
   0 O :   -0.999556
   1 U :    2.673124
   2 O :   -1.000395
   3 O :   -1.015865
   4 O :   -0.995869
   5 H :    0.335078
   6 H :    0.335573
   7 H :    0.332483
   8 H :    0.335426
Sum of atomic charges:   -0.0000000

--------------------------------
MULLIKEN REDUCED ORBITAL CHARGES
--------------------------------
  0 O s       :     3.898582  s :     3.898582
      pz      :     1.592962  p :     5.090581
      px      :     1.836831
      py      :     1.660788
      dz2     :     0.001101  d :     0.008588
      dxz     :     0.001442
      dyz     :     0.004456
      dx2y2   :     0.000621
      dxy     :     0.000967
      f0      :     0.000183  f :     0.001804
      f+1     :     0.000139
      f-1     :     0.000596
      f+2     :     0.000367
      f-2     :     0.000371
      f+3     :     0.000096
      f-3     :     0.000052
  1 U s       :    12.290264  s :    12.290264
      pz      :     9.970848  p :    29.901599
      px      :     9.964028
      py      :     9.966723
      dz2     :     6.172560  d :    30.918436
      dxz     :     6.183111
      dyz     :     6.187887
      dx2y2   :     6.192093
      dxy     :     6.182786
      f0      :     2.071304  f :    16.216577
      f+1     :     2.120089
      f-1     :     3.173474
      f+2     :     2.048294
      f-2     :     2.138690
      f+3     :     2.193390
      f-3     :     2.471337
  2 O s       :     3.900566  s :     3.900566
      pz      :     1.826406  p :     5.089386
      px      :     1.450793
      py      :     1.812188
      dz2     :     0.000965  d :     0.008628
      dxz     :     0.002219
      dyz     :     0.000440
      dx2y2   :     0.002940
      dxy     :     0.002065
      f0      :     0.000215  f :     0.001814
      f+1     :     0.000232
      f-1     :     0.000045
      f+2     :     0.000252
      f-2     :     0.000205
      f+3     :     0.000338
      f-3     :     0.000526
  3 O s       :     3.901244  s :     3.901244
      pz      :     1.871599  p :     5.104797
      px      :     1.548008
      py      :     1.685190
      dz2     :     0.001682  d :     0.008097
      dxz     :     0.000298
      dyz     :     0.000417
      dx2y2   :     0.001114
      dxy     :     0.004587
      f0      :     0.000105  f :     0.001727
      f+1     :     0.000283
      f-1     :     0.000171
      f+2     :     0.000008
      f-2     :     0.000168
      f+3     :     0.000304
      f-3     :     0.000689
  4 O s       :     3.899760  s :     3.899760
      pz      :     1.610808  p :     5.085590
      px      :     1.867326
      py      :     1.607456
      dz2     :     0.000879  d :     0.008698
      dxz     :     0.000543
      dyz     :     0.005359
      dx2y2   :     0.001683
      dxy     :     0.000235
      f0      :     0.000182  f :     0.001821
      f+1     :     0.000054
      f-1     :     0.000604
      f+2     :     0.000613
      f-2     :     0.000181
      f+3     :     0.000057
      f-3     :     0.000129
  5 H s       :     0.615016  s :     0.615016
      pz      :     0.017432  p :     0.049906
      px      :     0.014684
      py      :     0.017790
  6 H s       :     0.614395  s :     0.614395
      pz      :     0.015291  p :     0.050032
      px      :     0.019398
      py      :     0.015343
  7 H s       :     0.617341  s :     0.617341
      pz      :     0.014912  p :     0.050175
      px      :     0.018475
      py      :     0.016789
  8 H s       :     0.614548  s :     0.614548
      pz      :     0.017648  p :     0.050026
      px      :     0.015208
      py      :     0.017170


                     *******************************
                     * LOEWDIN POPULATION ANALYSIS *
                     *******************************

----------------------
LOEWDIN ATOMIC CHARGES
----------------------
   0 O :   -0.329210
   1 U :    0.664005
   2 O :   -0.326780
   3 O :   -0.351492
   4 O :   -0.325614
   5 H :    0.168318
   6 H :    0.168090
   7 H :    0.164863
   8 H :    0.167821

-------------------------------
LOEWDIN REDUCED ORBITAL CHARGES
-------------------------------
  0 O s       :     3.433015  s :     3.433015
      pz      :     1.562135  p :     4.854085
      px      :     1.700205
      py      :     1.591745
      dz2     :     0.007332  d :     0.039485
      dxz     :     0.003643
      dyz     :     0.023024
      dx2y2   :     0.003132
      dxy     :     0.002354
      f0      :     0.000153  f :     0.002626
      f+1     :     0.000172
      f-1     :     0.001133
      f+2     :     0.000562
      f-2     :     0.000453
      f+3     :     0.000113
      f-3     :     0.000040
  1 U s       :    12.208541  s :    12.208541
      pz      :    10.047595  p :    30.153231
      px      :    10.053448
      py      :    10.052188
      dz2     :     6.369605  d :    31.880202
      dxz     :     6.309728
      dyz     :     6.431831
      dx2y2   :     6.356340
      dxy     :     6.412698
      f0      :     2.205384  f :    17.094020
      f+1     :     2.208705
      f-1     :     3.321610
      f+2     :     2.146492
      f-2     :     2.286189
      f+3     :     2.329774
      f-3     :     2.595868
  2 O s       :     3.431886  s :     3.431886
      pz      :     1.693360  p :     4.852564
      px      :     1.467553
      py      :     1.691651
      dz2     :     0.006732  d :     0.039681
      dxz     :     0.005937
      dyz     :     0.001095
      dx2y2   :     0.012090
      dxy     :     0.013827
      f0      :     0.000298  f :     0.002648
      f+1     :     0.000375
      f-1     :     0.000080
      f+2     :     0.000309
      f-2     :     0.000254
      f+3     :     0.000332
      f-3     :     0.001001
  3 O s       :     3.441009  s :     3.441009
      pz      :     1.730137  p :     4.873081
      px      :     1.523825
      py      :     1.619119
      dz2     :     0.007777  d :     0.035019
      dxz     :     0.001050
      dyz     :     0.000919
      dx2y2   :     0.002789
      dxy     :     0.022484
      f0      :     0.000062  f :     0.002382
      f+1     :     0.000480
      f-1     :     0.000298
      f+2     :     0.000005
      f-2     :     0.000100
      f+3     :     0.000335
      f-3     :     0.001101
  4 O s       :     3.432019  s :     3.432019
      pz      :     1.572020  p :     4.850511
      px      :     1.721261
      py      :     1.557230
      dz2     :     0.005106  d :     0.040430
      dxz     :     0.001780
      dyz     :     0.026365
      dx2y2   :     0.006111
      dxy     :     0.001067
      f0      :     0.000154  f :     0.002654
      f+1     :     0.000064
      f-1     :     0.001066
      f+2     :     0.001027
      f-2     :     0.000138
      f+3     :     0.000033
      f-3     :     0.000172
  5 H s       :     0.661172  s :     0.661172
      pz      :     0.062426  p :     0.170510
      px      :     0.042286
      py      :     0.065797
  6 H s       :     0.661005  s :     0.661005
      pz      :     0.046942  p :     0.170906
      px      :     0.077347
      py      :     0.046617
  7 H s       :     0.663882  s :     0.663882
      pz      :     0.042947  p :     0.171255
      px      :     0.071067
      py      :     0.057241
  8 H s       :     0.661263  s :     0.661263
      pz      :     0.064038  p :     0.170916
      px      :     0.046241
      py      :     0.060637


                      *****************************
                      * MAYER POPULATION ANALYSIS *
                      *****************************

  NA   - Mulliken gross atomic population
  ZA   - Total nuclear charge
  QA   - Mulliken gross atomic charge
  VA   - Mayer's total valence
  BVA  - Mayer's bonded valence
  FA   - Mayer's free valence

  ATOM       NA         ZA         QA         VA         BVA        FA
  0 O      8.9996     8.0000    -0.9996     1.2602     1.2602    -0.0000
  1 U     89.3269    92.0000     2.6731     1.4944     1.4944     0.0000
  2 O      9.0004     8.0000    -1.0004     1.2570     1.2570    -0.0000
  3 O      9.0159     8.0000    -1.0159     1.2665     1.2665     0.0000
  4 O      8.9959     8.0000    -0.9959     1.2464     1.2464    -0.0000
  5 H      0.6649     1.0000     0.3351     0.9128     0.9128    -0.0000
  6 H      0.6644     1.0000     0.3356     0.9128     0.9128     0.0000
  7 H      0.6675     1.0000     0.3325     0.9159     0.9159     0.0000
  8 H      0.6646     1.0000     0.3354     0.9128     0.9128    -0.0000

  Mayer bond orders larger than 0.1
B(  0-O ,  1-U ) :   0.3517 B(  0-O ,  8-H ) :   0.8858 B(  1-U ,  2-O ) :   0.3474 
B(  1-U ,  3-O ) :   0.3608 B(  1-U ,  4-O ) :   0.3362 B(  2-O ,  6-H ) :   0.8858 
B(  3-O ,  7-H ) :   0.8873 B(  4-O ,  5-H ) :   0.8863 

-------
TIMINGS
-------

Total SCF time: 0 days 0 hours 5 min 8 sec 

Total time                  ....     308.371 sec
Sum of individual times     ....     306.419 sec  ( 99.4%)

Fock matrix formation       ....     287.440 sec  ( 93.2%)
Diagonalization             ....      10.208 sec  (  3.3%)
Density matrix formation    ....       0.403 sec  (  0.1%)
Population analysis         ....       0.060 sec  (  0.0%)
Initial guess               ....       0.159 sec  (  0.1%)
Orbital Transformation      ....       0.000 sec  (  0.0%)
Orbital Orthonormalization  ....       0.000 sec  (  0.0%)
DIIS solution               ....       8.076 sec  (  2.6%)


           ************************************************************
           *        Program running with 20 parallel MPI-processes    *
           *              working on a common directory               *
           ************************************************************

------------------------------------------------------------------------------
                                ORCA  MP2 
------------------------------------------------------------------------------

Freezing NCore=76 chemical core electrons
MP2 will be done in the AO integral direct mode
The Q1-step will be done using symmetric double matrices
Dimension of the basis                    ...  311
Memory devoted for MP2                    ... 31500 MB   
Memory needed for all in one shot         ...  231 MB
Number of MOs that can be treated together...  272      
MP2 density construction                  ... relaxed
The MP2 gradient is requested => amplitudes will be stored on disk
Total number of MOs              ...   26
Number of MOs treated per batch  ...    2 
Number of batches necessary      ...    1 
OPERATORS   0/  0 PASS   0
-----------------------------------------------
 MP2 CORRELATION ENERGY   :     -1.828342680 Eh
-----------------------------------------------


---------------------
MP2 DENSITY FORMATION
---------------------

Completing the external part of the density      ... done
Storing the unrelaxed density                    ... done

Calculating G(D)                                 ... done
Completing the Lagrangian                        ... done
Solving the Z-vector equations                   ... 

------------------------------------------------------------------------------
                           ORCA CP-SCF CALCULATION
------------------------------------------------------------------------------

Input orbitals are from        ... /home/nikolayandreadi_2125/_scratch/MP2/UOH4.gbw
Input Perturbation             ... /home/nikolayandreadi_2125/_scratch/MP2/UOH4.pin.tmp
Wavefunction output            ... /home/nikolayandreadi_2125/_scratch/MP2/UOH4.pout.tmp
Perturbation mode              ... Real perturbation
Solver                         ... DIIS
   MaxDIIS                     ... 20
   Levelshift                  ...    3.000e-01 Eh
Max. number of iterations      ... 5000
Convergence tolerance          ... 1.000e-08
Integral handling              ... Direct
Number of perturbations        ... 1
Number of operators            ... 1
Orbital ranges used for CP-SCF:
 Operator 0:  Orbitals   0... 63  to  64...310
Variables per vector in CP-SCF ... 15808
Number of vectors sought       ... 1

Solving the CP-SCF equations by a DIIS algorithm

-----------------
CP-SCF ITERATIONS
-----------------
  Iteration   0: MaxR=  0.344103127
  Iteration   1: MaxR=  0.205890011
  Iteration   2: MaxR=  0.120076554
  Iteration   3: MaxR=  0.055840436
  Iteration   4: MaxR=  0.030200402
  Iteration   5: MaxR=  0.020393214
  Iteration   6: MaxR=  0.018982258
  Iteration   7: MaxR=  0.018614661
  Iteration   8: MaxR=  0.018103688
  Iteration   9: MaxR=  0.016719059
  Iteration  10: MaxR=  0.013108449
  Iteration  11: MaxR=  0.010542551
  Iteration  12: MaxR=  0.009418876
  Iteration  13: MaxR=  0.008915301
  Iteration  14: MaxR=  0.008748689
  Iteration  15: MaxR=  0.008418535
  Iteration  16: MaxR=  0.007506832
  Iteration  17: MaxR=  0.006175435
  Iteration  18: MaxR=  0.003551830
  Iteration  19: MaxR=  0.001533130
  Iteration  20: MaxR=  0.001180154
  Iteration  21: MaxR=  0.001143019
  Iteration  22: MaxR=  0.001123420
  Iteration  23: MaxR=  0.001090475
  Iteration  24: MaxR=  0.000970911
  Iteration  25: MaxR=  0.000763636
  Iteration  26: MaxR=  0.000594210
  Iteration  27: MaxR=  0.000539220
  Iteration  28: MaxR=  0.000523865
  Iteration  29: MaxR=  0.000512851
  Iteration  30: MaxR=  0.000480399
  Iteration  31: MaxR=  0.000384382
  Iteration  32: MaxR=  0.000230457
  Iteration  33: MaxR=  0.000142465
  Iteration  34: MaxR=  0.000089915
  Iteration  35: MaxR=  0.000063381
  Iteration  36: MaxR=  0.000053964
  Iteration  37: MaxR=  0.000049348
  Iteration  38: MaxR=  0.000047215
  Iteration  39: MaxR=  0.000045032
  Iteration  40: MaxR=  0.000042949
  Iteration  41: MaxR=  0.000041617
  Iteration  42: MaxR=  0.000040089
  Iteration  43: MaxR=  0.000037734
  Iteration  44: MaxR=  0.000033234
  Iteration  45: MaxR=  0.000024587
  Iteration  46: MaxR=  0.000018875
  Iteration  47: MaxR=  0.000016919
  Iteration  48: MaxR=  0.000016160
  Iteration  49: MaxR=  0.000015706
  Iteration  50: MaxR=  0.000014954
  Iteration  51: MaxR=  0.000011162
  Iteration  52: MaxR=  0.000004793
  Iteration  53: MaxR=  0.000002929
  Iteration  54: MaxR=  0.000002343
  Iteration  55: MaxR=  0.000002253
  Iteration  56: MaxR=  0.000002204
  Iteration  57: MaxR=  0.000002115
  Iteration  58: MaxR=  0.000001883
  Iteration  59: MaxR=  0.000001357
  Iteration  60: MaxR=  0.000000799
  Iteration  61: MaxR=  0.000000519
  Iteration  62: MaxR=  0.000000465
  Iteration  63: MaxR=  0.000000450
  Iteration  64: MaxR=  0.000000438
  Iteration  65: MaxR=  0.000000415
  Iteration  66: MaxR=  0.000000370
  Iteration  67: MaxR=  0.000000267
  Iteration  68: MaxR=  0.000000217
  Iteration  69: MaxR=  0.000000200
  Iteration  70: MaxR=  0.000000190
  Iteration  71: MaxR=  0.000000182
  Iteration  72: MaxR=  0.000000170
  Iteration  73: MaxR=  0.000000147
  Iteration  74: MaxR=  0.000000128
  Iteration  75: MaxR=  0.000000121
  Iteration  76: MaxR=  0.000000117
  Iteration  77: MaxR=  0.000000114
  Iteration  78: MaxR=  0.000000106
  Iteration  79: MaxR=  0.000000086
  Iteration  80: MaxR=  0.000000061
  Iteration  81: MaxR=  0.000000045
  Iteration  82: MaxR=  0.000000037
  Iteration  83: MaxR=  0.000000034
  Iteration  84: MaxR=  0.000000033
  Iteration  85: MaxR=  0.000000032
  Iteration  86: MaxR=  0.000000030
  Iteration  87: MaxR=  0.000000026
  Iteration  88: MaxR=  0.000000020
  Iteration  89: MaxR=  0.000000015
  Iteration  90: MaxR=  0.000000014
  Iteration  91: MaxR=  0.000000014
  Iteration  92: MaxR=  0.000000014
  Iteration  93: MaxR=  0.000000013
  Iteration  94: MaxR=  0.000000009
                              *** THE CP-SCF HAS CONVERGED *** 
                                                 ... done
Finalizing the relaxed density                   ... done
Transforming P to the AO basis                   ... done
Storing the relaxed density                      ... done

------------------------------------
ENERGY WEIGHTED DENSITY FINALIZATION
------------------------------------

Gathering the parts of the W-matrix              ...                                                      done
Forming the Z-density                            ... done
Transforming Z to the AO basis                   ... done
Calculating G(Z)                                 ... done
Finalizing the W-matrix                          ...                                                      done
Transforming W to the AO basis and storing       ... done

                *********************************************
                * UNRELAXED MP2 DENSITY POPULATION ANALYSIS *
                *********************************************

------------------------------------------------------------------------------
                           ORCA POPULATION ANALYSIS
------------------------------------------------------------------------------
Input electron density              ... /home/nikolayandreadi_2125/_scratch/MP2/UOH4.pmp2ur
BaseName (.gbw .S,...)              ... /home/nikolayandreadi_2125/_scratch/MP2/UOH4

                    ********************************
                    * MULLIKEN POPULATION ANALYSIS *
                    ********************************

-----------------------
MULLIKEN ATOMIC CHARGES
-----------------------
   0 O :   -0.981433
   1 U :    2.604738
   2 O :   -0.982151
   3 O :   -0.997944
   4 O :   -0.977656
   5 H :    0.334062
   6 H :    0.334560
   7 H :    0.331417
   8 H :    0.334407
Sum of atomic charges:   -0.0000000

--------------------------------
MULLIKEN REDUCED ORBITAL CHARGES
--------------------------------
  0 O s       :     3.892105  s :     3.892105
      pz      :     1.578822  p :     5.044753
      px      :     1.819864
      py      :     1.646066
      dz2     :     0.007543  d :     0.040182
      dxz     :     0.007728
      dyz     :     0.011099
      dx2y2   :     0.006741
      dxy     :     0.007070
      f0      :     0.000568  f :     0.004394
      f+1     :     0.000512
      f-1     :     0.000974
      f+2     :     0.000735
      f-2     :     0.000739
      f+3     :     0.000454
      f-3     :     0.000411
  1 U s       :    12.285451  s :    12.285451
      pz      :     9.946800  p :    29.828929
      px      :     9.939737
      py      :     9.942392
      dz2     :     6.183592  d :    30.972832
      dxz     :     6.194742
      dyz     :     6.198225
      dx2y2   :     6.203383
      dxy     :     6.192890
      f0      :     2.089143  f :    16.308050
      f+1     :     2.137176
      f-1     :     3.168307
      f+2     :     2.066982
      f-2     :     2.155829
      f+3     :     2.209510
      f-3     :     2.481104
  2 O s       :     3.894044  s :     3.894044
      pz      :     1.809466  p :     5.043437
      px      :     1.438730
      py      :     1.795241
      dz2     :     0.007142  d :     0.040266
      dxz     :     0.008579
      dyz     :     0.006477
      dx2y2   :     0.009473
      dxy     :     0.008596
      f0      :     0.000573  f :     0.004404
      f+1     :     0.000610
      f-1     :     0.000397
      f+2     :     0.000620
      f-2     :     0.000576
      f+3     :     0.000724
      f-3     :     0.000905
  3 O s       :     3.894806  s :     3.894806
      pz      :     1.854215  p :     5.059402
      px      :     1.535107
      py      :     1.670080
      dz2     :     0.007811  d :     0.039440
      dxz     :     0.006461
      dyz     :     0.006534
      dx2y2   :     0.007488
      dxy     :     0.011146
      f0      :     0.000465  f :     0.004297
      f+1     :     0.000640
      f-1     :     0.000525
      f+2     :     0.000376
      f-2     :     0.000541
      f+3     :     0.000692
      f-3     :     0.001058
  4 O s       :     3.893251  s :     3.893251
      pz      :     1.596380  p :     5.039630
      px      :     1.849662
      py      :     1.593588
      dz2     :     0.007277  d :     0.040364
      dxz     :     0.006764
      dyz     :     0.012092
      dx2y2   :     0.007882
      dxy     :     0.006350
      f0      :     0.000563  f :     0.004410
      f+1     :     0.000424
      f-1     :     0.000984
      f+2     :     0.000972
      f-2     :     0.000558
      f+3     :     0.000420
      f-3     :     0.000488
  5 H s       :     0.614660  s :     0.614660
      pz      :     0.017798  p :     0.051278
      px      :     0.015354
      py      :     0.018126
  6 H s       :     0.614036  s :     0.614036
      pz      :     0.015902  p :     0.051403
      px      :     0.019552
      py      :     0.015949
  7 H s       :     0.617027  s :     0.617027
      pz      :     0.015584  p :     0.051557
      px      :     0.018735
      py      :     0.017238
  8 H s       :     0.614196  s :     0.614196
      pz      :     0.017988  p :     0.051397
      px      :     0.015832
      py      :     0.017576


                     *******************************
                     * LOEWDIN POPULATION ANALYSIS *
                     *******************************

----------------------
LOEWDIN ATOMIC CHARGES
----------------------
   0 O :   -0.313554
   1 U :    0.602904
   2 O :   -0.311090
   3 O :   -0.335678
   4 O :   -0.309927
   5 H :    0.167873
   6 H :    0.167664
   7 H :    0.164422
   8 H :    0.167386

-------------------------------
LOEWDIN REDUCED ORBITAL CHARGES
[...]
      f-2     :     0.000580
      f+3     :     0.000389
      f-3     :     0.000419
  1 U s       :    12.227657  s :    12.227657
      pz      :     9.983501  p :    29.950596
      px      :     9.983574
      py      :     9.983522
      dz2     :     6.441016  d :    32.131077
      dxz     :     6.351254
      dyz     :     6.480660
      dx2y2   :     6.377740
      dxy     :     6.480406
      f0      :     2.292195  f :    17.252914
      f+1     :     2.179446
      f-1     :     3.175788
      f+2     :     2.169491
      f-2     :     2.391666
      f+3     :     2.309425
      f-3     :     2.734903
  2 O s       :     3.410058  s :     3.410058
      pz      :     1.680184  p :     4.766866
      px      :     1.469438
      py      :     1.617243
      dz2     :     0.018395  d :     0.093926
      dxz     :     0.011725
      dyz     :     0.007917
      dx2y2   :     0.019509
      dxy     :     0.036379
      f0      :     0.000621  f :     0.006597
      f+1     :     0.001143
      f-1     :     0.000604
      f+2     :     0.000521
      f-2     :     0.000710
      f+3     :     0.000706
      f-3     :     0.002291
  3 O s       :     3.410198  s :     3.410198
      pz      :     1.685703  p :     4.767004
      px      :     1.521151
      py      :     1.560150
      dz2     :     0.019653  d :     0.093903
      dxz     :     0.008776
      dyz     :     0.008080
      dx2y2   :     0.010722
      dxy     :     0.046672
      f0      :     0.000522  f :     0.006594
      f+1     :     0.001056
      f-1     :     0.000875
      f+2     :     0.000394
      f-2     :     0.000635
      f+3     :     0.001230
      f-3     :     0.001882
  4 O s       :     3.410013  s :     3.410013
      pz      :     1.515465  p :     4.766755
      px      :     1.678662
      py      :     1.572627
      dz2     :     0.016753  d :     0.093951
      dxz     :     0.011048
      dyz     :     0.044096
      dx2y2   :     0.012688
      dxy     :     0.009366
      f0      :     0.000587  f :     0.006599
      f+1     :     0.000592
      f-1     :     0.002184
      f+2     :     0.001410
      f-2     :     0.000857
      f+3     :     0.000484
      f-3     :     0.000484
  5 H s       :     0.659197  s :     0.659197
      pz      :     0.068903  p :     0.172775
      px      :     0.043764
      py      :     0.060108
  6 H s       :     0.659228  s :     0.659228
      pz      :     0.043539  p :     0.172797
      px      :     0.076021
      py      :     0.053237
  7 H s       :     0.659248  s :     0.659248
      pz      :     0.042688  p :     0.172767
      px      :     0.068047
      py      :     0.062032
  8 H s       :     0.659205  s :     0.659205
      pz      :     0.075129  p :     0.172800
      px      :     0.042665
      py      :     0.055006


                      *****************************
                      * MAYER POPULATION ANALYSIS *
                      *****************************

  NA   - Mulliken gross atomic population
  ZA   - Total nuclear charge
  QA   - Mulliken gross atomic charge
  VA   - Mayer's total valence
  BVA  - Mayer's bonded valence
  FA   - Mayer's free valence

  ATOM       NA         ZA         QA         VA         BVA        FA
  0 O      8.9582     8.0000    -0.9582     1.5570     1.0838     0.4733
  1 U     89.4757    92.0000     2.5243     2.0365     0.8394     1.1970
  2 O      8.9582     8.0000    -0.9582     1.5571     1.0839     0.4733
  3 O      8.9582     8.0000    -0.9582     1.5573     1.0840     0.4733
  4 O      8.9582     8.0000    -0.9582     1.5569     1.0837     0.4733
  5 H      0.6728     1.0000     0.3272     0.9204     0.8705     0.0499
  6 H      0.6729     1.0000     0.3271     0.9205     0.8705     0.0499
  7 H      0.6729     1.0000     0.3271     0.9205     0.8705     0.0499
  8 H      0.6728     1.0000     0.3272     0.9205     0.8705     0.0499

  Mayer bond orders larger than 0.1
B(  0-O ,  1-U ) :   0.1940 B(  0-O ,  8-H ) :   0.8486 B(  1-U ,  2-O ) :   0.1942 
B(  1-U ,  3-O ) :   0.1945 B(  1-U ,  4-O ) :   0.1940 B(  2-O ,  6-H ) :   0.8485 
B(  3-O ,  7-H ) :   0.8485 B(  4-O ,  5-H ) :   0.8485 


                *******************************************
                * RELAXED MP2 DENSITY POPULATION ANALYSIS *
                *******************************************

------------------------------------------------------------------------------
                           ORCA POPULATION ANALYSIS
------------------------------------------------------------------------------
Input electron density              ... /home/nikolayandreadi_2125/_scratch/MP2/UOH4.pmp2re
BaseName (.gbw .S,...)              ... /home/nikolayandreadi_2125/_scratch/MP2/UOH4

                    ********************************
                    * MULLIKEN POPULATION ANALYSIS *
                    ********************************

-----------------------
MULLIKEN ATOMIC CHARGES
-----------------------
   0 O :   -0.834547
   1 U :    2.039016
   2 O :   -0.834437
   3 O :   -0.834352
   4 O :   -0.834495
   5 H :    0.324758
   6 H :    0.324686
   7 H :    0.324609
   8 H :    0.324761
Sum of atomic charges:    0.0000000

--------------------------------
MULLIKEN REDUCED ORBITAL CHARGES
--------------------------------
  0 O s       :     3.906053  s :     3.906053
      pz      :     1.422416  p :     4.878999
      px      :     1.800053
      py      :     1.656529
      dz2     :     0.010754  d :     0.044624
      dxz     :     0.007502
      dyz     :     0.012727
      dx2y2   :     0.007031
      dxy     :     0.006610
      f0      :     0.000772  f :     0.004872
      f+1     :     0.000567
      f-1     :     0.001389
      f+2     :     0.000765
      f-2     :     0.000591
      f+3     :     0.000389
      f-3     :     0.000398
  1 U s       :    12.706586  s :    12.706586
      pz      :     9.933003  p :    29.798733
      px      :     9.932836
      py      :     9.932894
      dz2     :     6.248875  d :    31.267400
      dxz     :     6.275204
      dyz     :     6.237435
      dx2y2   :     6.267874
      dxy     :     6.238012
      f0      :     2.162286  f :    16.188265
      f+1     :     2.085882
      f-1     :     2.895693
      f+2     :     2.079062
      f-2     :     2.241854
      f+3     :     2.179595
      f-3     :     2.543895
  2 O s       :     3.905994  s :     3.905994
      pz      :     1.789740  p :     4.878946
      px      :     1.412190
      py      :     1.677016
      dz2     :     0.008464  d :     0.044626
      dxz     :     0.007919
      dyz     :     0.006678
      dx2y2   :     0.009442
      dxy     :     0.012123
      f0      :     0.000549  f :     0.004871
      f+1     :     0.000743
      f-1     :     0.000487
      f+2     :     0.000483
      f-2     :     0.000626
      f+3     :     0.000755
      f-3     :     0.001227
  3 O s       :     3.905942  s :     3.905942
      pz      :     1.799552  p :     4.878914
      px      :     1.504766
      py      :     1.574596
      dz2     :     0.008643  d :     0.044627
      dxz     :     0.007197
      dyz     :     0.006930
      dx2y2   :     0.008060
      dxy     :     0.013797
      f0      :     0.000522  f :     0.004869
      f+1     :     0.000677
      f-1     :     0.000602
      f+2     :     0.000388
      f-2     :     0.000641
      f+3     :     0.000922
      f-3     :     0.001117
  4 O s       :     3.906053  s :     3.906053
      pz      :     1.494689  p :     4.878943
      px      :     1.787145
      py      :     1.597109
      dz2     :     0.008923  d :     0.044628
      dxz     :     0.007614
      dyz     :     0.013349
      dx2y2   :     0.007631
      dxy     :     0.007110
      f0      :     0.000621  f :     0.004872
      f+1     :     0.000526
      f-1     :     0.001225
      f+2     :     0.000889
      f-2     :     0.000712
      f+3     :     0.000450
      f-3     :     0.000449
  5 H s       :     0.623867  s :     0.623867
      pz      :     0.018097  p :     0.051375
      px      :     0.015936
      py      :     0.017342
  6 H s       :     0.623936  s :     0.623936
      pz      :     0.015916  p :     0.051378
      px      :     0.018711
      py      :     0.016751
  7 H s       :     0.624027  s :     0.624027
      pz      :     0.015839  p :     0.051364
      px      :     0.018021
      py      :     0.017504
  8 H s       :     0.623855  s :     0.623855
      pz      :     0.018635  p :     0.051384
      px      :     0.015844
      py      :     0.016905


                     *******************************
                     * LOEWDIN POPULATION ANALYSIS *
                     *******************************

----------------------
LOEWDIN ATOMIC CHARGES
----------------------
   0 O :   -0.203613
   1 U :    0.110160
   2 O :   -0.203778
   3 O :   -0.204023
   4 O :   -0.203651
   5 H :    0.176272
   6 H :    0.176201
   7 H :    0.176187
   8 H :    0.176246

-------------------------------
LOEWDIN REDUCED ORBITAL CHARGES
-------------------------------
  0 O s       :     3.412628  s :     3.412628
      pz      :     1.462522  p :     4.688187
      px      :     1.648094
      py      :     1.577572
      dz2     :     0.027854  d :     0.096005
      dxz     :     0.009640
      dyz     :     0.040902
      dx2y2   :     0.010168
      dxy     :     0.007441
      f0      :     0.000882  f :     0.006793
      f+1     :     0.000583
      f-1     :     0.002751
      f+2     :     0.001164
      f-2     :     0.000599
      f+3     :     0.000393
      f-3     :     0.000421
  1 U s       :    12.402703  s :    12.402703
      pz      :     9.994288  p :    29.982754
      px      :     9.994235
      py      :     9.994231
      dz2     :     6.474410  d :    32.317168
      dxz     :     6.407215
      dyz     :     6.504215
      dx2y2   :     6.427214
      dxy     :     6.504115
      f0      :     2.316700  f :    17.187214
      f+1     :     2.190344
      f-1     :     3.075242
      f+2     :     2.179143
      f-2     :     2.407680
      f+3     :     2.329209
      f-3     :     2.688897
  2 O s       :     3.412734  s :     3.412734
      pz      :     1.643018  p :     4.688229
      px      :     1.457546
      py      :     1.587664
      dz2     :     0.018724  d :     0.096024
      dxz     :     0.012004
      dyz     :     0.008038
      dx2y2   :     0.020007
      dxy     :     0.037251
      f0      :     0.000637  f :     0.006792
      f+1     :     0.001177
      f-1     :     0.000615
      f+2     :     0.000529
      f-2     :     0.000733
      f+3     :     0.000735
      f-3     :     0.002367
  3 O s       :     3.412900  s :     3.412900
      pz      :     1.647864  p :     4.688304
      px      :     1.503056
      py      :     1.537383
      dz2     :     0.020013  d :     0.096031
      dxz     :     0.008945
      dyz     :     0.008250
      dx2y2   :     0.011051
      dxy     :     0.047771
      f0      :     0.000535  f :     0.006789
      f+1     :     0.001084
      f-1     :     0.000895
      f+2     :     0.000395
      f-2     :     0.000656
      f+3     :     0.001277
      f-3     :     0.001946
  4 O s       :     3.412671  s :     3.412671
      pz      :     1.498042  p :     4.688156
      px      :     1.641743
      py      :     1.548371
      dz2     :     0.017206  d :     0.096031
      dxz     :     0.011274
      dyz     :     0.045087
      dx2y2   :     0.012905
      dxy     :     0.009559
      f0      :     0.000609  f :     0.006794
      f+1     :     0.000604
      f-1     :     0.002257
      f+2     :     0.001456
      f-2     :     0.000886
      f+3     :     0.000492
      f-3     :     0.000490
  5 H s       :     0.652665  s :     0.652665
      pz      :     0.068482  p :     0.171062
      px      :     0.043012
      py      :     0.059568
  6 H s       :     0.652717  s :     0.652717
      pz      :     0.042779  p :     0.171082
      px      :     0.075693
      py      :     0.052610
  7 H s       :     0.652764  s :     0.652764
      pz      :     0.041916  p :     0.171050
      px      :     0.067614
      py      :     0.061520
  8 H s       :     0.652667  s :     0.652667
      pz      :     0.074791  p :     0.171087
      px      :     0.041897
      py      :     0.054399


                      *****************************
                      * MAYER POPULATION ANALYSIS *
                      *****************************

  NA   - Mulliken gross atomic population
  ZA   - Total nuclear charge
  QA   - Mulliken gross atomic charge
  VA   - Mayer's total valence
  BVA  - Mayer's bonded valence
  FA   - Mayer's free valence

  ATOM       NA         ZA         QA         VA         BVA        FA
  0 O      8.8345     8.0000    -0.8345     1.8010     1.3537     0.4474
  1 U     89.9610    92.0000     2.0390     2.7837     1.9344     0.8493
  2 O      8.8344     8.0000    -0.8344     1.8012     1.3539     0.4474
  3 O      8.8344     8.0000    -0.8344     1.8015     1.3541     0.4474
  4 O      8.8345     8.0000    -0.8345     1.8010     1.3536     0.4474
  5 H      0.6752     1.0000     0.3248     0.9136     0.8605     0.0531
  6 H      0.6753     1.0000     0.3247     0.9136     0.8605     0.0532
  7 H      0.6754     1.0000     0.3246     0.9137     0.8605     0.0532
  8 H      0.6752     1.0000     0.3248     0.9136     0.8605     0.0531

  Mayer bond orders larger than 0.1
B(  0-O ,  1-U ) :   0.4684 B(  0-O ,  8-H ) :   0.8379 B(  1-U ,  2-O ) :   0.4687 
B(  1-U ,  3-O ) :   0.4691 B(  1-U ,  4-O ) :   0.4684 B(  2-O ,  6-H ) :   0.8379 
B(  3-O ,  7-H ) :   0.8379 B(  4-O ,  5-H ) :   0.8378 


----------------------------------
MP2 DERIVATIVE INTEGRAL GENERATION
----------------------------------


Input Wavefunction Amplitudes       ... /home/nikolayandreadi_2125/_scratch/MP2/UOH4.mp2tsaa.tmp.proc19
Input Correlated Electron Density   ... /home/nikolayandreadi_2125/_scratch/MP2/UOH4.pmp2re
Input Energy Weighted Density       ... /home/nikolayandreadi_2125/_scratch/MP2/UOH4.wmp2.tmp
Input SCF Electron Density          ... /home/nikolayandreadi_2125/_scratch/MP2/UOH4.scfp.tmp

One-Electron Terms    ...
                        ... One-Electron Terms done
Prescreening matrices              ... done

Batch handling in the gradient evaluation:
Memory available                      ... 31500.0 MB
Memory per occupied orbital in Q2     ...   19.2 MB
Memory per occupied orbital in Q3     ...    0.1 MB
Total memory requirement per |i>      ...   19.3 MB
Max. Number of orbitals possible      ...   1631
Number of orbitals treated per batch  ...     26
Number of batches to be done          ...      1
Batch   0: i=   38 ...    63

---------------------------------------
MP2 TOTAL ENERGY:   -28253.075398898 Eh
---------------------------------------

-----------------------------------
NORM OF THE MP2 GRADIENT:  0.000261
-----------------------------------

-------------------------   --------------------
FINAL SINGLE POINT ENERGY    -28253.075398897563
-------------------------   --------------------

                                *** OPTIMIZATION RUN DONE ***

                            ***************************************
                            *     ORCA property calculations      *
                            ***************************************

                                    ---------------------
                                    Active property flags
                                    ---------------------
   (+) Dipole Moment


------------------------------------------------------------------------------
                       ORCA ELECTRIC PROPERTIES CALCULATION
------------------------------------------------------------------------------

Dipole Moment Calculation                       ... on
Quadrupole Moment Calculation                   ... off
Polarizability Calculation                      ... off
GBWName                                         ... /home/nikolayandreadi_2125/_scratch/MP2/UOH4.gbw
Electron density file                           ... /home/nikolayandreadi_2125/_scratch/MP2/UOH4.scfp.tmp
The origin for moment calculation is the CENTER OF MASS  = ( 2.623484, -2.602678  1.225175)

-------------
DIPOLE MOMENT
-------------
                                X             Y             Z
Electronic contribution:     -0.01599       0.03506      -0.00495
Nuclear contribution   :      0.01543      -0.03461       0.00430
                        -----------------------------------------
Total Dipole Moment    :     -0.00056       0.00045      -0.00065
                        -----------------------------------------
Magnitude (a.u.)       :      0.00097
Magnitude (Debye)      :      0.00246


                         *** MP2 UNRELAXED DENSITY ***

------------------------------------------------------------------------------
                       ORCA ELECTRIC PROPERTIES CALCULATION
------------------------------------------------------------------------------

Dipole Moment Calculation                       ... on
Quadrupole Moment Calculation                   ... off
Polarizability Calculation                      ... off
GBWName                                         ... /home/nikolayandreadi_2125/_scratch/MP2/UOH4.gbw
Electron density file                           ... /home/nikolayandreadi_2125/_scratch/MP2/UOH4.pmp2ur
The origin for moment calculation is the CENTER OF MASS  = ( 2.623484, -2.602678  1.225175)

-------------
DIPOLE MOMENT
-------------
                                X             Y             Z
Electronic contribution:     -0.01585       0.03478      -0.00490
Nuclear contribution   :      0.01543      -0.03461       0.00430
                        -----------------------------------------
Total Dipole Moment    :     -0.00042       0.00017      -0.00060
                        -----------------------------------------
Magnitude (a.u.)       :      0.00075
Magnitude (Debye)      :      0.00191


                           *** MP2 RELAXED DENSITY ***

------------------------------------------------------------------------------
                       ORCA ELECTRIC PROPERTIES CALCULATION
------------------------------------------------------------------------------

Dipole Moment Calculation                       ... on
Quadrupole Moment Calculation                   ... off
Polarizability Calculation                      ... off
GBWName                                         ... /home/nikolayandreadi_2125/_scratch/MP2/UOH4.gbw
Electron density file                           ... /home/nikolayandreadi_2125/_scratch/MP2/UOH4.pmp2re
The origin for moment calculation is the CENTER OF MASS  = ( 2.623484, -2.602678  1.225175)

-------------
DIPOLE MOMENT
-------------
                                X             Y             Z
Electronic contribution:     -0.01465       0.03224      -0.00450
Nuclear contribution   :      0.01543      -0.03461       0.00430
                        -----------------------------------------
Total Dipole Moment    :      0.00078      -0.00236      -0.00020
                        -----------------------------------------
Magnitude (a.u.)       :      0.00250
Magnitude (Debye)      :      0.00635


Timings for individual modules:

Sum of individual times         ...     5660.905 sec (=  94.348 min)
GTO integral calculation        ...       30.683 sec (=   0.511 min)   0.5 %
Relativistic integrals          ...       10.344 sec (=   0.172 min)   0.2 %
SCF iterations                  ...     1279.578 sec (=  21.326 min)  22.6 %
MP2 module                      ...     4339.638 sec (=  72.327 min)  76.7 %
Geometry relaxation             ...        0.662 sec (=   0.011 min)   0.0 %
                             ****ORCA TERMINATED NORMALLY****
TOTAL RUN TIME: 0 days 1 hours 34 minutes 24 seconds 846 msec
