
                                 *****************
                                 * O   R   C   A *
                                 *****************

           --- An Ab Initio, DFT and Semiempirical electronic structure package ---

                  #######################################################
                  #                        -***-                        #
                  #  Department of molecular theory and spectroscopy    #
                  #              Directorship: Frank Neese              #
                  # Max Planck Institute for Chemical Energy Conversion #
                  #                  D-45470 Muelheim/Ruhr              #
                  #                       Germany                       #
                  #                                                     #
                  #                  All rights reserved                #
                  #                        -***-                        #
                  #######################################################


                         Program Version 4.0.1.2 - RELEASE -


 With contributions from (in alphabetic order):
   Daniel Aravena         : Magnetic Properties
   Michael Atanasov       : Ab Initio Ligand Field Theory
   Ute Becker             : Parallelization
   Martin Brehm           : Molecular dynamics
   Dmytro Bykov           : SCF Hessian
   Vijay G. Chilkuri      : MRCI spin determinant printing
   Dipayan Datta          : RHF DLPNO-CCSD density
   Achintya Kumar Dutta   : EOM-CC, STEOM-CC
   Dmitry Ganyushin       : Spin-Orbit,Spin-Spin,Magnetic field MRCI
   Yang Guo               : DLPNO-NEVPT2, CIM, IAO-localization
   Andreas Hansen         : Spin unrestricted coupled pair/coupled cluster methods
   Lee Huntington         : MR-EOM, pCC
   Robert Izsak           : Overlap fitted RIJCOSX, COSX-SCS-MP3, EOM
   Christian Kollmar      : KDIIS, OOCD, Brueckner-CCSD(T), CCSD density
   Simone Kossmann        : Meta GGA functionals, TD-DFT gradient, OOMP2, MP2 Hessian
   Martin Krupicka        : AUTO-CI
   Dagmar Lenk            : GEPOL surface
   Dimitrios Liakos       : Extrapolation schemes; parallel MDCI
   Dimitrios Manganas     : ROCIS; embedding schemes
   Dimitrios Pantazis     : SARC Basis sets
   Taras Petrenko         : DFT Hessian,TD-DFT gradient, ASA, ECA, R-Raman, ABS, FL, XAS/XES, NRVS
   Peter Pinski           : DLPNO-MP2
   Christoph Reimann      : Effective Core Potentials
   Marius Retegan         : Local ZFS, SOC
   Christoph Riplinger    : Optimizer, TS searches, QM/MM, DLPNO-CCSD(T), (RO)-DLPNO pert. Triples
   Tobias Risthaus        : Range-separated hybrids, TD-DFT gradient, RPA, STAB
   Michael Roemelt        : Restricted open shell CIS
   Masaaki Saitow         : Open-shell DLPNO
   Barbara Sandhoefer     : DKH picture change effects
   Kantharuban Sivalingam : CASSCF convergence, NEVPT2, FIC-MRCI
   Georgi Stoychev        : AutoAux
   Boris Wezisla          : Elementary symmetry handling
   Frank Wennmohs         : Technical directorship


 We gratefully acknowledge several colleagues who have allowed us to
 interface, adapt or use parts of their codes:
   Stefan Grimme, W. Hujo, H. Kruse,             : VdW corrections, initial TS optimization,
                  C. Bannwarth                     DFT functionals, gCP, sTDA/sTD-DF
   Ed Valeev                                     : LibInt (2-el integral package), F12 methods
   Garnet Chan, S. Sharma, J. Yang, R. Olivares  : DMRG
   Ulf Ekstrom                                   : XCFun DFT Library
   Mihaly Kallay                                 : mrcc  (arbitrary order and MRCC methods)
   Andreas Klamt, Michael Diedenhofen            : otool_cosmo (COSMO solvation model)
   Jiri Pittner, Ondrej Demel                    : Mk-CCSD
   Frank Weinhold                                : gennbo (NPA and NBO analysis)
   Christopher J. Cramer and Donald G. Truhlar   : smd solvation model


 Your calculation uses the libint2 library for the computation of 2-el integrals
 For citations please refer to: http://libint.valeyev.net

 This ORCA versions uses:
   CBLAS   interface :  Fast vector & matrix operations
   LAPACKE interface :  Fast linear algebra routines
   SCALAPACK package :  Parallel linear algebra routines


Your calculation utilizes the basis: DKH-def2-TZVP
   Exponents from def2-TZVP [F. Weigend and R. Ahlrichs, Phys. Chem. Chem. Phys. 7, 3297 (2005)],
   recontracted for DKH2 by D. A. Pantazis.

Your calculation utilizes the auxiliary basis: SARC/J 
   decontracted def2/J up to Kr:
   F. Weigend, Phys. Chem. Chem. Phys. 8, 1057 (2006)
   and SARC auxiliary basis sets beyond Kr:
   D. A. Pantazis and F. Neese, J. Chem. Theory Comput. 5, 2229 (2009).
   D. A. Pantazis, X. Y. Chen, C. R. Landis and F. Neese, J. Chem. Theory Comput. 4, 908 (2008).
   D. A. Pantazis and F. Neese, Theor. Chem. Acc. 131, 1292 (2012).
   D. A. Pantazis and F. Neese, J. Chem. Theory Comput. 7, 677 (2011).

================================================================================
                                        WARNINGS
                       Please study these warnings very carefully!
================================================================================

Warning: TCutStore was < 0. Adjusted to Thresh (uncritical)

WARNING: your system is open-shell and RHF/RKS was chosen
  ===> : WILL SWITCH to UHF/UKS


WARNING: In scalar relativistic gradient/hessian runs we need the one-center approximation
  ===> : %rel OneCenter is turned on

WARNING: The frozen-core approximation for MP2-gradient calculations is turned on by default.

WARNING: Geometry Optimization
  ===> : Switching off AutoStart
         For restart on a previous wavefunction, please use MOREAD

WARNING: Post HF methods need fully converged wavefunctions
  ===> : Setting SCFConvForced true
         You can overwrite this default with %scf ConvForced false 


INFO   : the flag for use of LIBINT has been found!

================================================================================
                                       INPUT FILE
================================================================================
NAME = /home/nikolayandreadi_2125/_scratch/MP2/UOH5.inp
|  1> !Opt MP2 DKH-def2-TZVP DKH SARC/J SlowConv
|  2> 
|  3> %pal
|  4> nproc 20
|  5> end
|  6> 
|  7> %maxcore 31500
|  8> 
|  9> %basis
| 10> newgto U "SARC-DKH-TZVP" end
| 11> end
| 12> 
| 13> %scf
| 14> MaxIter 5000
| 15> Guess HCore
| 16> end
| 17> 
| 18> %method
| 19> Z_MaxIter 5000
| 20> end
| 21> 
| 22> * xyz 0 2
| 23>   O      6.227443   -1.727240   -0.172071
| 24>   U      6.397243   -3.727160    0.374780
| 25>   O      4.574171   -3.547612    1.334139
| 26>   O      5.788687   -4.629546   -1.363597
| 27>   O      6.794350   -5.463991    1.443733
| 28>   O      8.435537   -3.515744    0.012268
| 29>   H      8.946019   -2.822332   -0.420020
| 30>   H      5.505549   -1.104341   -0.304162
| 31>   H      5.755498   -5.040055   -2.227385
| 32>   H      3.800348   -4.002551    1.676340
| 33>   H      7.505616   -6.112599    1.448173
| 34> **                         ****END OF INPUT****
================================================================================

                       *****************************
                       * Geometry Optimization Run *
                       *****************************

Geometry optimization settings:
Update method            Update   .... BFGS
Choice of coordinates    CoordSys .... Redundant Internals
Initial Hessian          InHess   .... Almoef's Model

Convergence Tolerances:
Energy Change            TolE     ....  5.0000e-06 Eh
Max. Gradient            TolMAXG  ....  3.0000e-04 Eh/bohr
RMS Gradient             TolRMSG  ....  1.0000e-04 Eh/bohr
Max. Displacement        TolMAXD  ....  4.0000e-03 bohr
RMS Displacement         TolRMSD  ....  2.0000e-03 bohr

------------------------------------------------------------------------------
                        ORCA OPTIMIZATION COORDINATE SETUP
------------------------------------------------------------------------------

The optimization will be done in new redundant internal coordinates
Making redundant internal coordinates   ...  (new redundants) done
Evaluating the initial hessian          ...  (Almloef) done
Evaluating the coordinates              ...  done
Calculating the B-matrix                .... done
Calculating the G-matrix                .... done
Diagonalizing the G-matrix              .... done
The first mode is                       ....   18
The number of degrees of freedom        ....   27

    -----------------------------------------------------------------
                    Redundant Internal Coordinates


    -----------------------------------------------------------------
         Definition                    Initial Value    Approx d2E/dq
    -----------------------------------------------------------------
      1. B(U   1,O   0)                  2.0803         0.148962   
      2. B(O   2,U   1)                  2.0679         0.155893   
      3. B(O   3,U   1)                  2.0510         0.165878   
      4. B(O   4,U   1)                  2.0777         0.150366   
      5. B(O   5,U   1)                  2.0810         0.148542   
      6. B(H   6,O   5)                  0.9635         0.513360   
      7. B(H   7,O   0)                  0.9626         0.515030   
      8. B(H   8,O   3)                  0.9569         0.525819   
      9. B(H   9,O   2)                  0.9607         0.518692   
     10. B(H  10,O   4)                  0.9626         0.515001   
     11. A(U   1,O   0,H   7)          136.0046         0.309713   
     12. A(O   3,U   1,O   4)           97.1799         0.304763   
     13. A(O   2,U   1,O   5)          159.3074         0.301166   
     14. A(O   0,U   1,O   3)          100.1342         0.304306   
     15. A(O   0,U   1,O   5)           86.3586         0.298993   
     16. A(O   2,U   1,O   3)           99.7781         0.306534   
     17. A(O   0,U   1,O   4)          162.6466         0.299574   
     18. A(O   3,U   1,O   5)          100.8168         0.304168   
     19. A(O   4,U   1,O   5)           89.2749         0.299440   
     20. A(O   2,U   1,O   4)           90.1372         0.301753   
     21. A(O   0,U   1,O   2)           88.0815         0.301302   
     22. A(U   1,O   2,H   9)          146.5412         0.312355   
     23. A(U   1,O   3,H   8)          164.5995         0.316216   
     24. A(U   1,O   4,H  10)          134.9790         0.310180   
     25. A(U   1,O   5,H   6)          132.0842         0.309410   
     26. D(O   5,U   1,O   0,H   7)    175.0261         0.001833   
     27. D(O   3,U   1,O   0,H   7)     74.6765         0.001833   
     28. D(O   2,U   1,O   0,H   7)    -24.9157         0.001833   
     29. D(O   4,U   1,O   0,H   7)   -109.2251         0.001833   
     30. D(H   9,O   2,U   1,O   3)     58.0978         0.001865   
     31. D(H   9,O   2,U   1,O   4)    -39.2124         0.001865   
     32. D(H   9,O   2,U   1,O   0)    158.0528         0.001865   
     33. D(H   9,O   2,U   1,O   5)   -127.5234         0.001865   
     34. D(H   8,O   3,U   1,O   5)      2.3894         0.001913   
     35. D(H   8,O   3,U   1,O   4)    -88.2456         0.001913   
     36. D(H   8,O   3,U   1,O   2)   -179.6300         0.001913   
     37. D(H   8,O   3,U   1,O   0)     90.5823         0.001913   
     38. D(H  10,O   4,U   1,O   3)     76.6832         0.001840   
     39. D(H  10,O   4,U   1,O   2)    176.5570         0.001840   
     40. D(H  10,O   4,U   1,O   0)    -99.4458         0.001840   
     41. D(H  10,O   4,U   1,O   5)    -24.1279         0.001840   
     42. D(H   6,O   5,U   1,O   4)   -175.3610         0.001831   
     43. D(H   6,O   5,U   1,O   3)     87.4676         0.001831   
     44. D(H   6,O   5,U   1,O   2)    -86.8926         0.001831   
     45. D(H   6,O   5,U   1,O   0)    -12.1656         0.001831   
    -----------------------------------------------------------------

Number of atoms                         .... 11
Number of degrees of freedom            .... 45

         *************************************************************
         *                GEOMETRY OPTIMIZATION CYCLE   1            *
         *************************************************************
---------------------------------
CARTESIAN COORDINATES (ANGSTROEM)
---------------------------------
  O      6.227443   -1.727240   -0.172071
  U      6.397243   -3.727160    0.374780
  O      4.574171   -3.547612    1.334139
  O      5.788687   -4.629546   -1.363597
  O      6.794350   -5.463991    1.443733
  O      8.435537   -3.515744    0.012268
  H      8.946019   -2.822332   -0.420020
  H      5.505549   -1.104341   -0.304162
  H      5.755498   -5.040055   -2.227385
  H      3.800348   -4.002551    1.676340
  H      7.505616   -6.112599    1.448173

----------------------------
CARTESIAN COORDINATES (A.U.)
----------------------------
  NO LB      ZA    FRAG     MASS         X           Y           Z
   0 O     8.0000    0    15.999   11.768162   -3.264011   -0.325167
   1 U    92.0000    0   238.029   12.089037   -7.043312    0.708232
   2 O     8.0000    0    15.999    8.643930   -6.704015    2.521157
   3 O     8.0000    0    15.999   10.939033   -8.748574   -2.576825
   4 O     8.0000    0    15.999   12.839461  -10.325447    2.728260
   5 O     8.0000    0    15.999   15.940855   -6.643793    0.023183
   6 H     1.0000    0     1.008   16.905526   -5.333435   -0.793723
   7 H     1.0000    0     1.008   10.403980   -2.086902   -0.574783
   8 H     1.0000    0     1.008   10.876315   -9.524324   -4.209148
   9 H     1.0000    0     1.008    7.181617   -7.563725    3.167824
  10 H     1.0000    0     1.008   14.183559  -11.551138    2.736650

--------------------------------
INTERNAL COORDINATES (ANGSTROEM)
--------------------------------
 O      0   0   0     0.000000000000     0.00000000     0.00000000
 U      1   0   0     2.080278361807     0.00000000     0.00000000
 O      2   1   0     2.067897166778    88.08153186     0.00000000
 O      2   1   3     2.050998657304   100.13417972    99.59222385
 O      2   1   3     2.077723852734   162.64662010   275.69068593
 O      2   1   3     2.081046396800    86.35858653   199.94180534
 H      6   2   1     0.963475474006   132.08421499   347.83437387
 H      1   2   3     0.962591369023   136.00461877   335.08425843
 H      4   2   1     0.956947677643   164.59951878    90.58229543
 H      3   2   1     0.960662819855   146.54118843   158.05281788
 H      5   2   1     0.962606552035   134.97902364   260.55422030

---------------------------
INTERNAL COORDINATES (A.U.)
---------------------------
 O      0   0   0     0.000000000000     0.00000000     0.00000000
 U      1   0   0     3.931156386137     0.00000000     0.00000000
 O      2   1   0     3.907759318322    88.08153186     0.00000000
 O      2   1   3     3.875825763344   100.13417972    99.59222385
 O      2   1   3     3.926329063583   162.64662010   275.69068593
 O      2   1   3     3.932607761936    86.35858653   199.94180534
 H      6   2   1     1.820704782622   132.08421499   347.83437387
 H      1   2   3     1.819034066330   136.00461877   335.08425843
 H      4   2   1     1.808369035237   164.59951878    90.58229543
 H      3   2   1     1.815389636566   146.54118843   158.05281788
 H      5   2   1     1.819062758064   134.97902364   260.55422030

---------------------
BASIS SET INFORMATION
---------------------
There are 3 groups of distinct atoms

 Group   1 Type O   : 11s6p2d1f contracted to 6s3p2d1f pattern {611111/411/11/1}
 Group   2 Type U   : 29s20p16d12f contracted to 21s13p10d7f pattern {911111111111111111111/8111111111111/7111111111/6111111}
 Group   3 Type H   : 5s1p contracted to 3s1p pattern {311/1}

Atom   0O    basis set group =>   1
Atom   1U    basis set group =>   2
Atom   2O    basis set group =>   1
Atom   3O    basis set group =>   1
Atom   4O    basis set group =>   1
Atom   5O    basis set group =>   1
Atom   6H    basis set group =>   3
Atom   7H    basis set group =>   3
Atom   8H    basis set group =>   3
Atom   9H    basis set group =>   3
Atom  10H    basis set group =>   3

INFORMATION: There is an auxiliary basis set but the global RI flag is NOT set

-------------------------------
AUXILIARY BASIS SET INFORMATION
-------------------------------
There are 3 groups of distinct atoms

 Group   1 Type O   : 12s5p4d2f1g contracted to 12s5p4d2f1g pattern {111111111111/11111/1111/11/1}
 Group   2 Type U   : 33s10p8d6f4g2h1i contracted to 33s10p8d6f4g2h1i pattern {111111111111111111111111111111111/1111111111/11111111/111111/1111/11/1}
 Group   3 Type H   : 5s2p1d contracted to 5s2p1d pattern {11111/11/1}

Atom   0O    basis set group =>   1
Atom   1U    basis set group =>   2
Atom   2O    basis set group =>   1
Atom   3O    basis set group =>   1
Atom   4O    basis set group =>   1
Atom   5O    basis set group =>   1
Atom   6H    basis set group =>   3
Atom   7H    basis set group =>   3
Atom   8H    basis set group =>   3
Atom   9H    basis set group =>   3
Atom  10H    basis set group =>   3


           ************************************************************
           *        Program running with 20 parallel MPI-processes    *
           *              working on a common directory               *
           ************************************************************
------------------------------------------------------------------------------
                           ORCA GTO INTEGRAL CALCULATION
------------------------------------------------------------------------------

                         BASIS SET STATISTICS AND STARTUP INFO

 # of primitive gaussian shells          ...  207
 # of primitive gaussian functions       ...  523
 # of contracted shells                  ...  131
 # of contracted basis functions         ...  349
 Highest angular momentum                ...    3
 Maximum contraction depth               ...    9
 Integral package used                   ... LIBINT
 Integral threshhold            Thresh   ...  2.500e-11
 Primitive cut-off              TCut     ...  2.500e-12


------------------------------ INTEGRAL EVALUATION ----------------------------


 * One electron integrals 
 Pre-screening matrix                    ... done
 Shell pair data                         ... done (   0.002 sec)

------------------------------------------------------------------------------
                          ORCA RELATIVISTIC HAMILTONIAN
------------------------------------------------------------------------------

Relativistic Method            ... DKH
Order of DKH treatment         ...   2
Treatment of potential         ... V(e,N)
Eps parameter for DKH          ...   0.00000000010000
Nucleus model                  ... Point Nucleus
Speed of light used            ... 137.03598950000000


            ************************************************
            *        DOUGLAS-KROLL-HESS HAMILTONIAN        *
            *   Programmed by FN according to literature   *
            *        procedures. Special thanks to         *
            *       B.A. Hess, M. Reiher and A. Wolf       *
            *     University Erlangen-Nuernberg/Bonn       *
            ************************************************

Uncontracting the basis (first version)        ... done
Number of contracted basis functions           ...  349
Number of uncontracted basis functions         ...  523
Initializing the DKH file                      ... done
One center approximation for DKH is active
Finding unique atoms                      ... 3 atom types
 ATOMIC NUMBER   8
          ... doing integrals          ... Computing the DKH transformation
          ... Transforming V and pVp to p**2 space
          ... First transformation of V and pVp
          ... Second transformation of Veff
          ... Adding kinetic energy
          ... Back transformation of Veff to r-space
          ... Recontracting the H-matrix
          ... Computing the DKH correction to the H-matrix
          ... adding submatrics to 5 actual atoms
 ATOMIC NUMBER  92
          ... doing integrals          ... Computing the DKH transformation
          ... Transforming V and pVp to p**2 space
          ... First transformation of V and pVp
          ... Second transformation of Veff
          ... Adding kinetic energy
          ... Back transformation of Veff to r-space
          ... Recontracting the H-matrix
          ... Computing the DKH correction to the H-matrix
          ... adding submatrics to 1 actual atoms
 ATOMIC NUMBER   1
          ... doing integrals          ... Computing the DKH transformation
          ... Transforming V and pVp to p**2 space
          ... First transformation of V and pVp
          ... Second transformation of Veff
          ... Adding kinetic energy
          ... Back transformation of Veff to r-space
          ... Recontracting the H-matrix
          ... Computing the DKH correction to the H-matrix
          ... adding submatrics to 5 actual atoms
Storing DKH matrices                           ... done
Getting S**(-1/2)                              ... done
Reading the original H-matrix                  ... done
Adding DKH correction to the H-matrix          ... done
Storing the new modified H-matrix              ... done


           ************************************************************
           *        Program running with 20 parallel MPI-processes    *
           *              working on a common directory               *
           ************************************************************
-------------------------------------------------------------------------------
                                 ORCA SCF
-------------------------------------------------------------------------------

------------
SCF SETTINGS
------------
Hamiltonian:
 Ab initio Hamiltonian  Method          .... Hartree-Fock(GTOs)

Relativistic Settings:
 Scalar relativistic method             .... Douglas-Kroll-Hess
 Order of DKH procedure    Order        ....    2
 Mode of DKH-treatment                  .... V=V(e,N)
 Speed of light used       Velit        ....       137.035989
 Cutoff-constant           Eps          ....            1e-10 


General Settings:
 Integral files         IntName         .... /home/nikolayandreadi_2125/_scratch/MP2/UOH5
 Hartree-Fock type      HFTyp           .... UHF
 Total Charge           Charge          ....    0
 Multiplicity           Mult            ....    2
 Number of Electrons    NEL             ....  137
 Basis Dimension        Dim             ....  349
 Nuclear Repulsion      ENuc            ....   1176.3421876927 Eh

Convergence Acceleration:
 DIIS                   CNVDIIS         .... on
   Start iteration      DIISMaxIt       ....     0
   Startup error        DIISStart       ....  0.200000
   # of expansion vecs  DIISMaxEq       ....     5
   Bias factor          DIISBfac        ....   1.050
   Max. coefficient     DIISMaxC        ....  10.000
 Newton-Raphson         CNVNR           .... off
 SOSCF                  CNVSOSCF        .... off
 Level Shifting         CNVShift        .... on
   Level shift para.    LevelShift      ....    0.2500
   Turn off err/grad.   ShiftErr        ....    0.0000
 Zerner damping         CNVZerner       .... off
 Static damping         CNVDamp         .... on
   Fraction old density DampFac         ....    0.8500
   Max. Damping (<1)    DampMax         ....    0.9800
   Min. Damping (>=0)   DampMin         ....    0.0000
   Turn off err/grad.   DampErr         ....    0.0300
 Fernandez-Rico         CNVRico         .... off

SCF Procedure:
 Maximum # iterations   MaxIter         ....  5000
 SCF integral mode      SCFMode         .... Direct
   Integral package                     .... LIBINT
 Reset frequeny         DirectResetFreq ....    20
 Integral Threshold     Thresh          ....  2.500e-11 Eh
 Primitive CutOff       TCut            ....  2.500e-12 Eh

Convergence Tolerance:
 Convergence Check Mode ConvCheckMode   .... Total+1el-Energy
 Convergence forced     ConvForced      .... 1
 Energy Change          TolE            ....  1.000e-08 Eh
 1-El. energy change                    ....  1.000e-05 Eh
 DIIS Error             TolErr          ....  5.000e-07


Diagonalization of the overlap matrix:
Smallest eigenvalue                        ... 4.292e-04
Time for diagonalization                   ...    0.025 sec
Threshold for overlap eigenvalues          ... 1.000e-08
Number of eigenvalues below threshold      ... 0
Time for construction of square roots      ...    0.017 sec
Total time needed                          ...    0.042 sec

--------------------
INITIAL GUESS: HCORE
--------------------
                      -----------------
                      INTIAL GUESS DONE 
                      -----------------
--------------
SCF ITERATIONS
--------------
ITER       Energy         Delta-E        Max-DP      RMS-DP      [F,P]     Damp
               ***  Starting incremental Fock matrix formation  ***
  0 -22021.8693486843   0.00000000000028.65347235  0.15215201 73.8553517 0.8500
  1 -23772.1871645705-1750.31781588616312.37736694  0.08700411 60.1704119 0.8500
                               ***Turning on DIIS***
  2 -24860.4959782710-1088.308813700485 8.27700518  0.06132450 49.4101301 0.8500
  3 -27419.5753328329-2559.079354561916 6.97419719  0.05602502 40.6157073 0.8500
  4 -27318.3680442746 101.207288558311 5.94972191  0.04738454 34.0760471 0.8500
  5 -27513.8120942676-195.444049993046 5.03433166  0.04022361 28.7694618 0.8500
  6 -27641.4651715117-127.653077244064 4.27852087  0.03420909 24.3650114 0.8500
  7 -27545.1944723230  96.270699188673 3.76650845  0.02922757 20.6548378 0.8500
  8 -27800.0482287092-254.853756386176 3.10754562  0.02477122 17.4735080 0.8500
  9 -27884.3102618259 -84.262033116684 2.63512182  0.02105348 14.8107867 0.8500
 10 -27941.6104793147 -57.300217488875 2.23764979  0.01790067 12.5642848 0.8500
 11 -27990.5993347028 -48.988855388096 1.90338037  0.01521854 10.6609566 0.8500
 12 -28033.0607473247 -42.461412621840 1.61953424  0.01293859  9.0462691 0.8500
 13 -28079.6455891889 -46.584841864231 1.37441654  0.01099465  7.6755609 0.8500
 14 -28116.6185548912 -36.972965702305 1.16886446  0.00934497  6.5135067 0.8500
 15 -28146.0035523264 -29.384997435194 0.99357936  0.00794414  5.5273968 0.8500
 16 -28170.8661964043 -24.862644077930 0.84448724  0.00675311  4.6901714 0.8500
 17 -28192.5959247001 -21.729728295781 0.71782076  0.00574005  3.9793255 0.8500
 18 -28211.7427594306 -19.146834730433 0.61022700  0.00487848  3.3758692 0.8500
 19 -28228.2074570667 -16.464697636147 0.51875439  0.00414615  2.8636744 0.8500
               *** Restarting incremental Fock matrix formation ***
                                   *** Resetting DIIS ***
 20 -28161.7456650824  66.461791984279 0.49108729  0.00362438  2.4289908 0.8500
 21 -28221.6166548403 -59.870989757859 0.38282866  0.00301388  2.0053470 0.8500
 22 -28252.3982277571 -30.781572916836 0.32019362  0.00253713  1.6758146 0.8500
 23 -28267.2437887611 -14.845561003960 0.27198752  0.00215057  1.4116087 0.8500
 24 -28276.3522793533  -9.108490592178 0.23086196  0.00182673  1.1942826 0.8500
 25 -28281.2614602214  -4.909180868159 0.19581990  0.00155396  1.0127189 0.8500
 26 -28286.6603623854  -5.398902164026 0.16633511  0.00132169  0.8590257 0.8500
 27 -28292.7136772636  -6.053314878183 0.14148003  0.00112334  0.7285072 0.8500
 28 -28298.0456343404  -5.331957076745 0.12032967  0.00095464  0.6178281 0.8500
 29 -28302.3599568626  -4.314322522208 0.10228764  0.00081140  0.5239980 0.8500
 30 -28305.8438471760  -3.483890313444 0.08691808  0.00068975  0.4444288 0.8500
 31 -28308.8113697518  -2.967522575796 0.07385853  0.00058634  0.3769355 0.8500
 32 -28311.4138232965  -2.602453544641 0.06277266  0.00049840  0.3196856 0.8500
 33 -28313.6723041430  -2.258480846511 0.05335602  0.00042363  0.2711315 0.8500
 34 -28315.5994565600  -1.927152417054 0.04535112  0.00036008  0.2299552 0.8500
 35 -28317.2334800806  -1.634023520535 0.03854504  0.00030608  0.1950351 0.8500
 36 -28318.6245583001  -1.391078219509 0.03275972  0.00026017  0.1654190 0.8500
 37 -28319.8151200979  -1.190561797834 0.02784321  0.00022116  0.1403007 0.8500
 38 -28320.8351504095  -1.020030311607 0.02366511  0.00018799  0.1189973 0.8500
 39 -28321.7074208613  -0.872270451837 0.02011413  0.00015980  0.1009296 0.8500
               *** Restarting incremental Fock matrix formation ***
                                   *** Resetting DIIS ***
 40 -28320.4215195209   1.285901340467 0.01775058  0.00013784  0.0856061 0.8500
 41 -28322.2860604634  -1.864540942559 0.01457103  0.00011573  0.0708507 0.8500
 42 -28323.4555205523  -1.169460088899 0.01240323  0.00009782  0.0592646 0.8500
 43 -28324.0363822550  -0.580861702663 0.01052273  0.00008306  0.0500115 0.8500
 44 -28324.4204106788  -0.384028423843 0.00892763  0.00007063  0.0423904 0.8500
 45 -28324.6570552494  -0.236644570541 0.00757346  0.00006013  0.0359922 0.8500
 46 -28324.9405737259  -0.283518476564 0.00643575  0.00005117  0.0305380 0.8500
 47 -28325.2344365827  -0.293862856757 0.03649232  0.00029012  0.0258998 0.0000
 48 -28326.7997995634  -1.565362980669 0.00028368  0.00000472  0.0008776 0.0000
 49 -28326.8221508362  -0.022351272790 0.00033754  0.00000341  0.0007936 0.0000
 50 -28326.7974480184   0.024702817798 0.00042960  0.00000507  0.0008126 0.0000
 51 -28326.8003583586  -0.002910340190 0.00046594  0.00000433  0.0008173 0.0000
 52 -28326.8018733285  -0.001514969976 0.00031035  0.00000256  0.0008359 0.0000
 53 -28326.8029171079  -0.001043779397 0.00005656  0.00000053  0.0008587 0.0000
 54 -28326.8040629133  -0.001145805400 0.00011403  0.00000094  0.0008721 0.0000
 55 -28326.8036269164   0.000435996964 0.00001316  0.00000015  0.0008729 0.0000
 56 -28326.8016115240   0.002015392351 0.00027464  0.00000224  0.0008703 0.0000
 57 -28326.8014579026   0.000153621429 0.00033035  0.00000261  0.0008766 0.0000
 58 -28326.8018046150  -0.000346712415 0.00014169  0.00000113  0.0008919 0.0000
 59 -28326.8019027719  -0.000098156866 0.00018657  0.00000143  0.0009067 0.0000
               *** Restarting incremental Fock matrix formation ***
                                   *** Resetting DIIS ***
 60 -28326.8014098277   0.000492944120 0.00037017  0.00000287  0.0009105 0.0000
 61 -28326.8014016797   0.000008148025 0.00038451  0.00000296  0.0009161 0.0000
 62 -28326.8017007384  -0.000299058651 0.00016748  0.00000132  0.0009284 0.0000
 63 -28326.8023270236  -0.000626285200 0.00022351  0.00000168  0.0009435 0.0000
 64 -28326.8023582896  -0.000031266001 0.00004323  0.00000035  0.0009486 0.0000
 65 -28326.8018235068   0.000534782776 0.00030311  0.00000230  0.0009424 0.0000
 66 -28326.8015038485   0.000319658284 0.00035874  0.00000275  0.0009431 0.0000
 67 -28326.8016173093  -0.000113460810 0.00012269  0.00000098  0.0009558 0.0000
 68 -28326.8019207818  -0.000303472487 0.00026842  0.00000202  0.0009711 0.0000
 69 -28326.8016792998   0.000241481965 0.00010412  0.00000078  0.0009747 0.0000
 70 -28326.8015248916   0.000154408262 0.00030283  0.00000230  0.0009680 0.0000
 71 -28326.8015348558  -0.000009964246 0.00032048  0.00000245  0.0009726 0.0000
 72 -28326.8018409678  -0.000306111979 0.00002754  0.00000028  0.0009856 0.0000
 73 -28326.8022568489  -0.000415881128 0.00022823  0.00000172  0.0009991 0.0000
 74 -28326.8020160165   0.000240832393 0.00016134  0.00000121  0.0009989 0.0000
 75 -28326.8016560512   0.000359965343 0.00031574  0.00000240  0.0009935 0.0000
 76 -28326.8015344256   0.000121625562 0.00030273  0.00000232  0.0010008 0.0000
 77 -28326.8017651878  -0.000230762198 0.00005532  0.00000042  0.0010142 0.0000
 78 -28326.8017142414   0.000050946412 0.00006777  0.00000051  0.0010264 0.0000
 79 -28326.8017929226  -0.000078681205 0.00001375  0.00000011  0.0010265 0.0000
               *** Restarting incremental Fock matrix formation ***
                                   *** Resetting DIIS ***
 80 -28326.8014711454   0.000321777257 0.00041592  0.00000316  0.0010275 0.0000
 81 -28326.8015019836  -0.000030838226 0.00038718  0.00000296  0.0010357 0.0000
 82 -28326.8018324678  -0.000330484188 0.00006792  0.00000058  0.0010498 0.0000
 83 -28326.8022643296  -0.000431861838 0.00024980  0.00000189  0.0010646 0.0000
 84 -28326.8022615581   0.000002771478 0.00006197  0.00000049  0.0010656 0.0000
 85 -28326.8017480365   0.000513521685 0.00039929  0.00000302  0.0010583 0.0000
 86 -28326.8015213367   0.000226699809 0.00041704  0.00000319  0.0010595 0.0000
 87 -28326.8017657333  -0.000244396684 0.00002398  0.00000029  0.0010741 0.0000
 88 -28326.8020815875  -0.000315854180 0.00038468  0.00000292  0.0010914 0.0000
 89 -28326.8017628653   0.000318722257 0.00012739  0.00000096  0.0010900 0.0000
 90 -28326.8015686260   0.000194239281 0.00036518  0.00000278  0.0010798 0.0000
 91 -28326.8015541813   0.000014444693 0.00040120  0.00000308  0.0010847 0.0000
 92 -28326.8019656673  -0.000411486064 0.00003594  0.00000032  0.0010994 0.0000
 93 -28326.8020903279  -0.000124660528 0.00000887  0.00000007  0.0011158 0.0000
 94 -28326.8020828965   0.000007431419 0.00010849  0.00000082  0.0011163 0.0000
 95 -28326.8019264435   0.000156452967 0.00020293  0.00000156  0.0011154 0.0000
 96 -28326.8017098649   0.000216578639 0.00028489  0.00000220  0.0011214 0.0000
 97 -28326.8017934512  -0.000083586310 0.00006530  0.00000055  0.0011321 0.0000
 98 -28326.8019404791  -0.000147027924 0.00010233  0.00000078  0.0011444 0.0000
 99 -28326.8017249031   0.000215576016 0.00022298  0.00000170  0.0011461 0.0000
               *** Restarting incremental Fock matrix formation ***
                                   *** Resetting DIIS ***
100 -28326.8015438177   0.000181085405 0.00045921  0.00000354  0.0011455 0.0000
101 -28326.8016424864  -0.000098668745 0.00038111  0.00000296  0.0011567 0.0000
102 -28326.8020914273  -0.000448940937 0.00001671  0.00000022  0.0011731 0.0000
103 -28326.8022718094  -0.000180382012 0.00000315  0.00000003  0.0011874 0.0000
104 -28326.8023695926  -0.000097783202 0.00000234  0.00000002  0.0011886 0.0000
105 -28326.8020306511   0.000338941467 0.00038545  0.00000296  0.0011878 0.0000
106 -28326.8017903719   0.000240279169 0.00031020  0.00000244  0.0011893 0.0000
107 -28326.8019377448  -0.000147372852 0.00007377  0.00000056  0.0012066 0.0000
108 -28326.8018044661   0.000133278631 0.00013361  0.00000103  0.0012203 0.0000
109 -28326.8018720276  -0.000067561428 0.00003914  0.00000031  0.0012201 0.0000
110 -28326.8017629205   0.000109107063 0.00027995  0.00000217  0.0012238 0.0000
111 -28326.8018686435  -0.000105722971 0.00027660  0.00000217  0.0012275 0.0000
112 -28326.8022895483  -0.000420904864 0.00002152  0.00000021  0.0012401 0.0000
113 -28326.8022233869   0.000066161487 0.00017552  0.00000136  0.0012517 0.0000
114 -28326.8022975811  -0.000074194286 0.00005692  0.00000046  0.0012530 0.0000
115 -28326.8020907502   0.000206830977 0.00021498  0.00000167  0.0012588 0.0000
116 -28326.8018837058   0.000207044406 0.00024399  0.00000192  0.0012628 0.0000
117 -28326.8019559445  -0.000072238770 0.00005823  0.00000050  0.0012728 0.0000
118 -28326.8020184736  -0.000062529034 0.00003544  0.00000028  0.0012830 0.0000
119 -28326.8019368816   0.000081591985 0.00019387  0.00000152  0.0012853 0.0000
               *** Restarting incremental Fock matrix formation ***
                                   *** Resetting DIIS ***
120 -28326.8016423985   0.000294483059 0.00051280  0.00000403  0.0012889 0.0000
121 -28326.8017521559  -0.000109757410 0.00042960  0.00000340  0.0012998 0.0000
122 -28326.8023548971  -0.000602741158 0.00002163  0.00000027  0.0013173 0.0000
123 -28326.8025718921  -0.000216994980 0.00000608  0.00000005  0.0013333 0.0000
124 -28326.8026904113  -0.000118519187 0.00000331  0.00000003  0.0013344 0.0000
125 -28326.8022516590   0.000438752260 0.00043597  0.00000342  0.0013334 0.0000
126 -28326.8019670764   0.000284582555 0.00034029  0.00000274  0.0013344 0.0000
127 -28326.8021861250  -0.000219048583 0.00010516  0.00000082  0.0013536 0.0000
128 -28326.8019899269   0.000196198125 0.00014906  0.00000118  0.0013688 0.0000
129 -28326.8020489146  -0.000058987665 0.00006692  0.00000054  0.0013677 0.0000
130 -28326.8019242274   0.000124687129 0.00031215  0.00000247  0.0013717 0.0000
131 -28326.8020886393  -0.000164411827 0.00028834  0.00000232  0.0013763 0.0000
132 -28326.8026574397  -0.000568800482 0.00004910  0.00000040  0.0013902 0.0000
133 -28326.8025413617   0.000116078078 0.00020101  0.00000160  0.0014023 0.0000
134 -28326.8025622914  -0.000020929754 0.00010668  0.00000087  0.0014028 0.0000
135 -28326.8023300588   0.000232232655 0.00022846  0.00000183  0.0014095 0.0000
136 -28326.8021115508   0.000218507957 0.00023320  0.00000189  0.0014151 0.0000
137 -28326.8021840938  -0.000072543000 0.00005049  0.00000045  0.0014257 0.0000
138 -28326.8021991821  -0.000015088306 0.00008502  0.00000068  0.0014356 0.0000
139 -28326.8021302129   0.000068969173 0.00022991  0.00000185  0.0014377 0.0000
               *** Restarting incremental Fock matrix formation ***
                                   *** Resetting DIIS ***
140 -28326.8017704795   0.000359733473 0.00057160  0.00000460  0.0014431 0.0000
141 -28326.8019198571  -0.000149377614 0.00047332  0.00000385  0.0014552 0.0000
142 -28326.8027205529  -0.000800695780 0.00003591  0.00000037  0.0014745 0.0000
143 -28326.8029905509  -0.000269998047 0.00000750  0.00000006  0.0014922 0.0000
144 -28326.8031324601  -0.000141909233 0.00000172  0.00000002  0.0014930 0.0000
145 -28326.8025364447   0.000596015441 0.00049850  0.00000401  0.0014919 0.0000
146 -28326.8021875885   0.000348856203 0.00037629  0.00000310  0.0014929 0.0000
147 -28326.8025073706  -0.000319782128 0.00014291  0.00000114  0.0015144 0.0000
148 -28326.8022229567   0.000284413945 0.00016554  0.00000134  0.0015312 0.0000
149 -28326.8022657818  -0.000042825075 0.00010158  0.00000083  0.0015290 0.0000
150 -28326.8021351879   0.000130593828 0.00034934  0.00000284  0.0015335 0.0000
151 -28326.8023846607  -0.000249472745 0.00030302  0.00000251  0.0015391 0.0000
152 -28326.8031439249  -0.000759264214 0.00007407  0.00000060  0.0015545 0.0000
153 -28326.8029649058   0.000179019116 0.00022674  0.00000184  0.0015674 0.0000
154 -28326.8029045710   0.000060334736 0.00015888  0.00000131  0.0015671 0.0000
155 -28326.8026297638   0.000274807244 0.00024842  0.00000204  0.0015747 0.0000
156 -28326.8024041810   0.000225582822 0.00022411  0.00000186  0.0015820 0.0000
157 -28326.8024774316  -0.000073250660 0.00004782  0.00000044  0.0015934 0.0000
158 -28326.8024428737   0.000034557885 0.00013194  0.00000108  0.0016031 0.0000
159 -28326.8023910915   0.000051782288 0.00027055  0.00000223  0.0016052 0.0000
               *** Restarting incremental Fock matrix formation ***
                                   *** Resetting DIIS ***
160 -28326.8019381692   0.000452922297 0.00063683  0.00000526  0.0016121 0.0000
161 -28326.8021345195  -0.000196350375 0.00052458  0.00000438  0.0016255 0.0000
162 -28326.8031811700  -0.001046650486 0.00004105  0.00000043  0.0016467 0.0000
163 -28326.8035257652  -0.000344595195 0.00000798  0.00000007  0.0016663 0.0000
164 -28326.8037059240  -0.000180158786 0.00000136  0.00000002  0.0016672 0.0000
165 -28326.8029247650   0.000781159037 0.00055737  0.00000460  0.0016660 0.0000
166 -28326.8024742307   0.000450534277 0.00042242  0.00000358  0.0016667 0.0000
167 -28326.8029026230  -0.000428392279 0.00015529  0.00000127  0.0016902 0.0000
168 -28326.8025460538   0.000356569206 0.00018295  0.00000152  0.0017092 0.0000
169 -28326.8026098338  -0.000063779989 0.00010774  0.00000091  0.0017068 0.0000
170 -28326.8024220928   0.000187740981 0.00039102  0.00000326  0.0017116 0.0000
171 -28326.8027192988  -0.000297206065 0.00034723  0.00000295  0.0017174 0.0000
172 -28326.8036895454  -0.000970246587 0.00007420  0.00000062  0.0017342 0.0000
173 -28326.8034721418   0.000217403580 0.00024842  0.00000208  0.0017490 0.0000
174 -28326.8034337562   0.000038385693 0.00016265  0.00000138  0.0017486 0.0000
175 -28326.8030625212   0.000371234990 0.00028322  0.00000239  0.0017568 0.0000
176 -28326.8027537283   0.000308792820 0.00026876  0.00000229  0.0017642 0.0000
177 -28326.8028815873  -0.000127858952 0.00005804  0.00000055  0.0017768 0.0000
178 -28326.8028815773   0.000000009990 0.00012508  0.00000105  0.0017883 0.0000
179 -28326.8027750973   0.000106479958 0.00029705  0.00000252  0.0017905 0.0000
               *** Restarting incremental Fock matrix formation ***
                                   *** Resetting DIIS ***
180 -28326.8021580434   0.000617053989 0.00070836  0.00000601  0.0017972 0.0000
181 -28326.8024039529  -0.000245909516 0.00058865  0.00000504  0.0018111 0.0000
182 -28326.8037375866  -0.001333633743 0.00003379  0.00000040  0.0018338 0.0000
183 -28326.8042040602  -0.000466473633 0.00000743  0.00000007  0.0018559 0.0000
184 -28326.8044592137  -0.000255153485 0.00000393  0.00000004  0.0018575 0.0000
185 -28326.8034851480   0.000974065770 0.00060268  0.00000511  0.0018562 0.0000
186 -28326.8028513636   0.000633784392 0.00048099  0.00000418  0.0018560 0.0000
187 -28326.8033486311  -0.000497267523 0.00012091  0.00000102  0.0018810 0.0000
188 -28326.8029829840   0.000365647113 0.00020067  0.00000171  0.0019027 0.0000
189 -28326.8031661437  -0.000183159700 0.00006306  0.00000056  0.0019014 0.0000
190 -28326.8028114304   0.000354713291 0.00043606  0.00000374  0.0019065 0.0000
191 -28326.8030602929  -0.000248862510 0.00043458  0.00000378  0.0019106 0.0000
192 -28326.8042340896  -0.001173796714 0.00002810  0.00000034  0.0019284 0.0000
193 -28326.8040623142   0.000171775442 0.00026187  0.00000225  0.0019467 0.0000
194 -28326.8043067950  -0.000244480805 0.00008065  0.00000073  0.0019477 0.0000
195 -28326.8037115510   0.000595244011 0.00033890  0.00000293  0.0019561 0.0000
196 -28326.8031286804   0.000582870613 0.00039351  0.00000344  0.0019606 0.0000
197 -28326.8033810077  -0.000252327300 0.00010460  0.00000098  0.0019745 0.0000
198 -28326.8036618502  -0.000280842592 0.00002327  0.00000022  0.0019905 0.0000
199 -28326.8033679720   0.000293878293 0.00029477  0.00000256  0.0019944 0.0000
               *** Restarting incremental Fock matrix formation ***
                                   *** Resetting DIIS ***
200 -28326.8024452854   0.000922686559 0.00078473  0.00000684  0.0019975 0.0000
201 -28326.8027294038  -0.000284118403 0.00066863  0.00000588  0.0020105 0.0000
202 -28326.8043706079  -0.001641204126 0.00002905  0.00000047  0.0020339 0.0000
203 -28326.8060726378  -0.001702029924 0.00037019  0.00000323  0.0020591 0.0000
204 -28326.8061357286  -0.000063090796 0.00010444  0.00000095  0.0020597 0.0000
205 -28326.8036013653   0.002534363364 0.00078158  0.00000682  0.0020490 0.0000
206 -28326.8026627378   0.000938627487 0.00077403  0.00000684  0.0020482 0.0000
207 -28326.8039775769  -0.001314839134 0.00005815  0.00000066  0.0020714 0.0000
208 -28326.8039798151  -0.000002238216 0.00003916  0.00000035  0.0021038 0.0000
209 -28326.8039387160   0.000041099178 0.00016706  0.00000145  0.0021049 0.0000
210 -28326.8040145785  -0.000075862579 0.00032589  0.00000288  0.0021030 0.0000
211 -28326.8035698373   0.000444741232 0.00056461  0.00000502  0.0021098 0.0000
212 -28326.8041922190  -0.000622381664 0.00021604  0.00000201  0.0021247 0.0000
213 -28326.8056755178  -0.001483298780 0.00025115  0.00000220  0.0021476 0.0000
214 -28326.8045387929   0.001136724906 0.00040112  0.00000353  0.0021560 0.0000
215 -28326.8036563829   0.000882409990 0.00050049  0.00000446  0.0021502 0.0000
216 -28326.8038253622  -0.000168979379 0.00034539  0.00000312  0.0021619 0.0000
217 -28326.8046367176  -0.000811355370 0.00001857  0.00000025  0.0021800 0.0000
218 -28326.8048055732  -0.000168855622 0.00003023  0.00000028  0.0021957 0.0000
219 -28326.8041426638   0.000662909413 0.00040988  0.00000365  0.0021970 0.0000
               *** Restarting incremental Fock matrix formation ***
                                   *** Resetting DIIS ***
220 -28326.8028091651   0.001333498727 0.00085880  0.00000770  0.0021979 0.0000
221 -28326.8031377930  -0.000328627899 0.00072817  0.00000659  0.0022122 0.0000
222 -28326.8051570743  -0.002019281310 0.00005807  0.00000070  0.0022368 0.0000
223 -28326.8072109236  -0.002053849279 0.00039158  0.00000351  0.0022642 0.0000
224 -28326.8072575127  -0.000046589103 0.00010541  0.00000099  0.0022675 0.0000
225 -28326.8042334658   0.003024046888 0.00085507  0.00000768  0.0022566 0.0000
226 -28326.8031040822   0.001129383632 0.00084322  0.00000767  0.0022538 0.0000
227 -28326.8046850797  -0.001580997516 0.00004341  0.00000058  0.0022769 0.0000
228 -28326.8065054335  -0.001820353864 0.00075153  0.00000678  0.0023120 0.0000
229 -28326.8045778648   0.001927568697 0.00031298  0.00000280  0.0023156 0.0000
230 -28326.8034333739   0.001144490987 0.00075615  0.00000684  0.0022930 0.0000
231 -28326.8033358383   0.000097535587 0.00080973  0.00000741  0.0022975 0.0000
232 -28326.8055890380  -0.002253199757 0.00004763  0.00000056  0.0023196 0.0000
233 -28326.8063214230  -0.000732384939 0.00003249  0.00000031  0.0023535 0.0000
234 -28326.8076007482  -0.001279325279 0.00021219  0.00000194  0.0023560 0.0000
235 -28326.8049907126   0.002610035681 0.00072496  0.00000659  0.0023548 0.0000
236 -28326.8035250763   0.001465636302 0.00081435  0.00000750  0.0023489 0.0000
237 -28326.8048083209  -0.001283244677 0.00015644  0.00000162  0.0023678 0.0000
238 -28326.8068294197  -0.002021098750 0.00056893  0.00000519  0.0024001 0.0000
239 -28326.8049645489   0.001864870821 0.00037350  0.00000340  0.0024103 0.0000
               *** Restarting incremental Fock matrix formation ***
                                   *** Resetting DIIS ***
240 -28326.8032306051   0.001733943725 0.00092599  0.00000854  0.0023934 0.0000
241 -28326.8036074397  -0.000376834563 0.00082027  0.00000763  0.0024029 0.0000
242 -28326.8057848282  -0.002177388495 0.00016110  0.00000166  0.0024251 0.0000
243 -28326.8087520497  -0.002967221531 0.00047035  0.00000433  0.0024552 0.0000
244 -28326.8088153898  -0.000063340085 0.00011101  0.00000108  0.0024654 0.0000
245 -28326.8050355784   0.003779811381 0.00091207  0.00000842  0.0024531 0.0000
246 -28326.8036428920   0.001392686430 0.00090850  0.00000851  0.0024449 0.0000
247 -28326.8053121314  -0.001669239395 0.00013823  0.00000153  0.0024657 0.0000
248 -28326.8077785081  -0.002466376678 0.00077550  0.00000719  0.0025023 0.0000
249 -28326.8055667487   0.002211759340 0.00032122  0.00000296  0.0025161 0.0000
250 -28326.8041284840   0.001438264757 0.00080083  0.00000747  0.0024912 0.0000
251 -28326.8039365809   0.000191903047 0.00085722  0.00000810  0.0024918 0.0000
252 -28326.8062648732  -0.002328292274 0.00010813  0.00000125  0.0025117 0.0000
253 -28326.8100084161  -0.003743542857 0.00072949  0.00000681  0.0025465 0.0000
254 -28326.8078192994   0.002189116698 0.00039158  0.00000363  0.0025594 0.0000
255 -28326.8049542013   0.002865098035 0.00082620  0.00000778  0.0025339 0.0000
256 -28326.8041189916   0.000835209768 0.00083175  0.00000793  0.0025371 0.0000
257 -28326.8061318655  -0.002012873898 0.00006890  0.00000089  0.0025571 0.0000
258 -28326.8085582358  -0.002426370309 0.00066126  0.00000623  0.0025915 0.0000
259 -28326.8062359184   0.002322317370 0.00043224  0.00000405  0.0026026 0.0000
               *** Restarting incremental Fock matrix formation ***
                                   *** Resetting DIIS ***
260 -28326.8037546526   0.002481265790 0.00098225  0.00000936  0.0025782 0.0000
261 -28326.8040972652  -0.000342612566 0.00088658  0.00000853  0.0025855 0.0000
262 -28326.8064823118  -0.002385046650 0.00026994  0.00000274  0.0026076 0.0000
263 -28326.8099244112  -0.003442099420 0.00046459  0.00000441  0.0026365 0.0000
264 -28326.8099839002  -0.000059489004 0.00009581  0.00000097  0.0026539 0.0000
265 -28326.8059540678   0.004029832427 0.00094017  0.00000899  0.0026425 0.0000
266 -28326.8043449092   0.001609158662 0.00094083  0.00000913  0.0026312 0.0000
267 -28326.8059826916  -0.001637782414 0.00028848  0.00000298  0.0026546 0.0000
268 -28326.8091508257  -0.003168134164 0.00064590  0.00000618  0.0026821 0.0000
269 -28326.8070031011   0.002147724663 0.00032908  0.00000315  0.0027059 0.0000
270 -28326.8052947701   0.001708330939 0.00078304  0.00000758  0.0026830 0.0000
271 -28326.8049110997   0.000383670482 0.00084209  0.00000827  0.0026832 0.0000
272 -28326.8068240351  -0.001912935411 0.00028445  0.00000295  0.0027044 0.0000
273 -28326.8103440757  -0.003520040678 0.00049188  0.00000475  0.0027270 0.0000
274 -28326.8084425164   0.001901559379 0.00038351  0.00000371  0.0027492 0.0000
275 -28326.8061496537   0.002292862620 0.00074996  0.00000736  0.0027291 0.0000
276 -28326.8053330725   0.000816581196 0.00077832  0.00000774  0.0027356 0.0000
277 -28326.8068516203  -0.001518547753 0.00028430  0.00000296  0.0027545 0.0000
278 -28326.8094562980  -0.002604677677 0.00034043  0.00000332  0.0027717 0.0000
279 -28326.8077241476   0.001732150424 0.00041222  0.00000405  0.0027920 0.0000
               *** Restarting incremental Fock matrix formation ***
                                   *** Resetting DIIS ***
280 -28326.8044992990   0.003224848526 0.00102706  0.00001025  0.0027765 0.0000
281 -28326.8047946622  -0.000295363177 0.00095655  0.00000965  0.0027929 0.0000
282 -28326.8071516336  -0.002356971418 0.00044547  0.00000463  0.0028131 0.0000
283 -28326.8110694639  -0.003917830298 0.00035800  0.00000355  0.0028324 0.0000
284 -28326.8113902909  -0.000320826963 0.00006083  0.00000065  0.0028464 0.0000
285 -28326.8074734054   0.003916885446 0.00088328  0.00000888  0.0028389 0.0000
286 -28326.8055245568   0.001948848625 0.00091770  0.00000939  0.0028413 0.0000
287 -28326.8065765522  -0.001051995423 0.00052996  0.00000556  0.0028577 0.0000
288 -28326.8097516179  -0.003175065631 0.00022745  0.00000227  0.0028780 0.0000
289 -28326.8087227461   0.001028871771 0.00028486  0.00000290  0.0028920 0.0000
290 -28326.8080506569   0.000672089242 0.00044835  0.00000461  0.0028909 0.0000
291 -28326.8067745707   0.001276086172 0.00073501  0.00000762  0.0028961 0.0000
292 -28326.8066845065   0.000090064143 0.00067633  0.00000710  0.0029065 0.0000
293 -28326.8086773904  -0.001992883834 0.00022267  0.00000247  0.0029213 0.0000
294 -28326.8109512457  -0.002273855309 0.00011784  0.00000121  0.0029371 0.0000
295 -28326.8087794922   0.002171753491 0.00053388  0.00000556  0.0029447 0.0000
296 -28326.8071758068   0.001603685425 0.00069979  0.00000738  0.0029434 0.0000
297 -28326.8069885214   0.000187285405 0.00068742  0.00000733  0.0029510 0.0000
298 -28326.8082599654  -0.001271444013 0.00039734  0.00000433  0.0029632 0.0000
299 -28326.8102997275  -0.002039762152 0.00003030  0.00000048  0.0029781 0.0000
               *** Restarting incremental Fock matrix formation ***
                                   *** Resetting DIIS ***
300 -28326.8055593431   0.004740384415 0.00103871  0.00001112  0.0029900 0.0000
301 -28326.8056463507  -0.000087007578 0.00104154  0.00001129  0.0029901 0.0000
302 -28326.8072201513  -0.001573800611 0.00075692  0.00000836  0.0029984 0.0000
303 -28326.8106122721  -0.003392120809 0.00009956  0.00000136  0.0030136 0.0000
304 -28326.8154655144  -0.004853242252 0.00055171  0.00000597  0.0030349 0.0000
305 -28326.8107526814   0.004712833004 0.00069300  0.00000751  0.0030484 0.0000
306 -28326.8069893414   0.003763339952 0.00091781  0.00001014  0.0030298 0.0000
307 -28326.8065336126   0.000455728801 0.00094700  0.00001061  0.0030306 0.0000
308 -28326.8081597662  -0.001626153608 0.00060904  0.00000698  0.0030392 0.0000
309 -28326.8114301746  -0.003270408433 0.00003281  0.00000056  0.0030553 0.0000
310 -28326.8135404505  -0.002110275844 0.00013897  0.00000155  0.0030766 0.0000
311 -28326.8102146381   0.003325812366 0.00062021  0.00000697  0.0030825 0.0000
312 -28326.8073153641   0.002899274070 0.00088409  0.00001010  0.0030707 0.0000
313 -28326.8068378107   0.000477553316 0.00094139  0.00001091  0.0030684 0.0000
314 -28326.8081121469  -0.001274336129 0.00070452  0.00000832  0.0030719 0.0000
315 -28326.8110150250  -0.002902878106 0.00021299  0.00000268  0.0030834 0.0000
316 -28326.8136781181  -0.002663093110 0.00007582  0.00000087  0.0031031 0.0000
317 -28326.8110127874   0.002665330656 0.00053363  0.00000625  0.0031162 0.0000
318 -28326.8083637439   0.002649043559 0.00077431  0.00000921  0.0031039 0.0000
319 -28326.8072503510   0.001113392867 0.00093433  0.00001126  0.0030982 0.0000
               *** Restarting incremental Fock matrix formation ***
                                   *** Resetting DIIS ***
320 -28326.8071373035   0.000113047543 0.00094361  0.00001156  0.0030942 0.0000
321 -28326.8074337361  -0.000296432656 0.00090678  0.00001128  0.0030935 0.0000
322 -28326.8081652261  -0.000731489992 0.00080774  0.00001021  0.0030949 0.0000
323 -28326.8094897785  -0.001324552424 0.00062363  0.00000802  0.0030985 0.0000
324 -28326.8117542108  -0.002264432223 0.00031932  0.00000422  0.0031060 0.0000
325 -28326.8119927290  -0.000238518227 0.00034050  0.00000444  0.0031196 0.0000
326 -28326.8103651537   0.001627575231 0.00056306  0.00000732  0.0031233 0.0000
327 -28326.8083875163   0.001977637461 0.00082095  0.00001079  0.0031158 0.0000
328 -28326.8066236197   0.001763896609 0.00107985  0.00001443  0.0031011 0.0000
329 -28326.8050951145   0.001528505229 0.00134985  0.00001774  0.0030789 0.0000
330 -28326.8039197533   0.001175361194 0.00156693  0.00002020  0.0030505 0.0000
331 -28326.8020671783   0.001852574958 0.00188987  0.00002384  0.0030190 0.0000
332 -28326.7991436000   0.002923578293 0.00239762  0.00002950  0.0029774 0.0000
333 -28326.7966691230   0.002474477042 0.00285525  0.00003422  0.0029154 0.0000
334 -28326.7933194064   0.003349716550 0.00345751  0.00004033  0.0028367 0.0000
335 -28326.7926111229   0.000708283507 0.00365972  0.00004166  0.0027912 0.0000
336 -28326.7771087145   0.015502408358 0.00621647  0.00006874  0.0027255 0.0000
337 -28326.8268058302  -0.049697115654 0.00148829  0.00001672  0.0027024 0.0000
338 -28326.7512484890   0.075557341166 0.01005274  0.00010855  0.0026551 0.0000
339 -28326.7980268236  -0.046778334570 0.00329238  0.00003651  0.0026037 0.0000
               *** Restarting incremental Fock matrix formation ***
                                   *** Resetting DIIS ***
340 -28326.8130926044  -0.015065780801 0.00072629  0.00000926  0.0022082 0.0000
341 -28326.8138392720  -0.000746667640 0.00084043  0.00000961  0.0021579 0.0000
342 -28326.8113366311   0.002502640902 0.00102041  0.00001139  0.0021762 0.0000
343 -28326.8099297562   0.001406874955 0.00158096  0.00001748  0.0021545 0.0000
344 -28326.7967094229   0.013220333294 0.00347120  0.00003832  0.0020856 0.0000
345 -28326.7937016261   0.003007796811 0.00467791  0.00005214  0.0019608 0.0000
346 -28326.8072932068  -0.013591580719 0.00185871  0.00002148  0.0019229 0.0000
347 -28326.7472261881   0.060067018716 0.01250170  0.00014781  0.0017377 0.0000
348 -28326.8724591871  -0.125232999020 0.00535347  0.00006539  0.0019392 0.0000
349 -28326.8320033609   0.040455826198 0.00069243  0.00000857  0.0015435 0.0000
350 -28326.7938666347   0.038136726187 0.00440478  0.00005341  0.0015388 0.0000
351 -28326.7862674459   0.007599188826 0.00559250  0.00007170  0.0014516 0.0000
352 -28326.8018816838  -0.015614237884 0.00438377  0.00006133  0.0013784 0.0000
353 -28326.7914605337   0.010421150102 0.00463256  0.00006092  0.0011701 0.0000
354 -28326.8169789157  -0.025518382030 0.00056721  0.00000835  0.0010234 0.0000
355 -28326.7913016664   0.025677249265 0.00614660  0.00007951  0.0007546 0.0000
356 -28326.8115484069  -0.020246740445 0.00377831  0.00004430  0.0009728 0.0000
357 -28326.8090373038   0.002511103045 0.00462733  0.00005357  0.0006886 0.0000
358 -28326.8208854428  -0.011848138936 0.00025430  0.00000560  0.0006357 0.0000
359 -28326.8120288009   0.008856641907 0.00310735  0.00003538  0.0002769 0.0000
               *** Restarting incremental Fock matrix formation ***
                                   *** Resetting DIIS ***
360 -28326.8168225623  -0.004793761404 0.00012576  0.00000264  0.0004514 0.0000
361 -28326.8168664347  -0.000043872391 0.00007172  0.00000129  0.0002058 0.0000
362 -28326.8169544207  -0.000087986020 0.00007363  0.00000100  0.0001775 0.0000
363 -28326.8161653954   0.000789025282 0.00010984  0.00000136  0.0001687 0.0000
364 -28326.8167661700  -0.000600774631 0.00014458  0.00000168  0.0001714 0.0000
365 -28326.8171272719  -0.000361101826 0.00022066  0.00000252  0.0001718 0.0000
366 -28326.8166020600   0.000525211824 0.00035570  0.00000401  0.0001688 0.0000
367 -28326.8167599176  -0.000157857587 0.00031932  0.00000359  0.0001708 0.0000
368 -28326.8160781817   0.000681735899 0.00064834  0.00000724  0.0001670 0.0000
369 -28326.8163563211  -0.000278139363 0.00009923  0.00000117  0.0001731 0.0000
370 -28326.8165991817  -0.000242860573 0.00108979  0.00001211  0.0001452 0.0000
371 -28326.8164599747   0.000139206917 0.00037492  0.00000428  0.0001735 0.0000
372 -28326.8162375524   0.000222422339 0.00096147  0.00001067  0.0001377 0.0000
373 -28326.8169165371  -0.000678984692 0.00014855  0.00000184  0.0001437 0.0000
374 -28326.8163990768   0.000517460263 0.00060014  0.00000665  0.0001048 0.0000
375 -28326.8170733986  -0.000674321738 0.00032402  0.00000365  0.0001105 0.0000
376 -28326.8168080527   0.000265345843 0.00025728  0.00000290  0.0000939 0.0000
377 -28326.8170239335  -0.000215880755 0.00025520  0.00000288  0.0000867 0.0000
378 -28326.8168582724   0.000165661037 0.00018401  0.00000191  0.0000824 0.0000
379 -28326.8170988228  -0.000240550351 0.00034499  0.00000375  0.0000739 0.0000
               *** Restarting incremental Fock matrix formation ***
                                   *** Resetting DIIS ***
380 -28326.8168642317   0.000234591076 0.00001892  0.00000030  0.0000718 0.0000
381 -28326.8168705450  -0.000006313297 0.00001754  0.00000022  0.0000587 0.0000
382 -28326.8167668659   0.000103679151 0.00002061  0.00000023  0.0000556 0.0000
383 -28326.8168703909  -0.000103525032 0.00003586  0.00000039  0.0000553 0.0000
384 -28326.8167196038   0.000150787109 0.00007590  0.00000082  0.0000530 0.0000
385 -28326.8170369640  -0.000317360242 0.00012979  0.00000138  0.0000476 0.0000
386 -28326.8169812313   0.000055732751 0.00007415  0.00000080  0.0000429 0.0000
387 -28326.8171508455  -0.000169614214 0.00020046  0.00000211  0.0000361 0.0000
388 -28326.8172089875  -0.000058142050 0.00000642  0.00000012  0.0000302 0.0000
389 -28326.8168895883   0.000319399205 0.00014165  0.00000148  0.0000221 0.0000
390 -28326.8169108008  -0.000021212494 0.00005245  0.00000056  0.0000212 0.0000
391 -28326.8169231656  -0.000012364806 0.00003887  0.00000042  0.0000157 0.0000
392 -28326.8168852049   0.000037960694 0.00002494  0.00000028  0.0000145 0.0000
393 -28326.8168719709   0.000013234014 0.00001874  0.00000023  0.0000142 0.0000
394 -28326.8168992541  -0.000027283175 0.00003020  0.00000036  0.0000136 0.0000
395 -28326.8168698479   0.000029406190 0.00003847  0.00000045  0.0000138 0.0000
396 -28326.8168491584   0.000020689535 0.00001164  0.00000014  0.0000140 0.0000
397 -28326.8168692954  -0.000020137064 0.00004638  0.00000057  0.0000131 0.0000
398 -28326.8168635858   0.000005709684 0.00000317  0.00000005  0.0000139 0.0000
399 -28326.8168656229  -0.000002037104 0.00003433  0.00000039  0.0000125 0.0000
               *** Restarting incremental Fock matrix formation ***
                                   *** Resetting DIIS ***
400 -28326.8168656634  -0.000000040578 0.00000367  0.00000005  0.0000128 0.0000
401 -28326.8168650543   0.000000609103 0.00000319  0.00000004  0.0000118 0.0000
402 -28326.8168649669   0.000000087464 0.00000411  0.00000004  0.0000117 0.0000
403 -28326.8168648524   0.000000114458 0.00000744  0.00000008  0.0000116 0.0000
404 -28326.8168599858   0.000004866630 0.00002138  0.00000022  0.0000113 0.0000
405 -28326.8168624253  -0.000002439505 0.00001566  0.00000016  0.0000109 0.0000
406 -28326.8168487215   0.000013703753 0.00004040  0.00000041  0.0000102 0.0000
407 -28326.8168659040  -0.000017182443 0.00000826  0.00000009  0.0000101 0.0000
408 -28326.8168488878   0.000017016231 0.00004825  0.00000048  0.0000081 0.0000
409 -28326.8168496860  -0.000000798289 0.00002226  0.00000023  0.0000087 0.0000
410 -28326.8168506677  -0.000000981643 0.00002569  0.00000025  0.0000066 0.0000
411 -28326.8168522676  -0.000001599918 0.00001503  0.00000015  0.0000056 0.0000
412 -28326.8168574927  -0.000005225073 0.00001282  0.00000013  0.0000045 0.0000
413 -28326.8168488274   0.000008665305 0.00001956  0.00000019  0.0000044 0.0000
414 -28326.8168543750  -0.000005547670 0.00001154  0.00000011  0.0000045 0.0000
415 -28326.8168490594   0.000005315611 0.00001982  0.00000019  0.0000045 0.0000
416 -28326.8168580894  -0.000009030016 0.00000872  0.00000008  0.0000046 0.0000
417 -28326.8168618975  -0.000003808065 0.00001289  0.00000013  0.0000044 0.0000
418 -28326.8168526526   0.000009244879 0.00001558  0.00000016  0.0000043 0.0000
419 -28326.8168550992  -0.000002446555 0.00000252  0.00000003  0.0000042 0.0000
               *** Restarting incremental Fock matrix formation ***
                                   *** Resetting DIIS ***
420 -28326.8168657357  -0.000010636490 0.00000125  0.00000001  0.0000039 0.0000
421 -28326.8168655347   0.000000201013 0.00000131  0.00000001  0.0000038 0.0000
422 -28326.8168674545  -0.000001919798 0.00000223  0.00000002  0.0000037 0.0000
423 -28326.8168664304   0.000001024047 0.00000667  0.00000007  0.0000036 0.0000
424 -28326.8168717414  -0.000005310983 0.00000744  0.00000007  0.0000032 0.0000
425 -28326.8168653738   0.000006367591 0.00000296  0.00000003  0.0000028 0.0000
426 -28326.8168706690  -0.000005295224 0.00001085  0.00000011  0.0000024 0.0000
427 -28326.8168713352  -0.000000666165 0.00000484  0.00000005  0.0000022 0.0000
428 -28326.8168709388   0.000000396401 0.00000495  0.00000005  0.0000018 0.0000
429 -28326.8168715103  -0.000000571501 0.00000340  0.00000003  0.0000015 0.0000
430 -28326.8168670227   0.000004487621 0.00000162  0.00000002  0.0000013 0.0000
431 -28326.8168661829   0.000000839744 0.00000217  0.00000002  0.0000012 0.0000
432 -28326.8168668918  -0.000000708867 0.00000200  0.00000002  0.0000011 0.0000
433 -28326.8168669671  -0.000000075284 0.00000182  0.00000002  0.0000011 0.0000
434 -28326.8168671688  -0.000000201744 0.00000225  0.00000002  0.0000011 0.0000
435 -28326.8168654578   0.000001711025 0.00000113  0.00000001  0.0000012 0.0000
436 -28326.8168654342   0.000000023581 0.00000322  0.00000003  0.0000011 0.0000
437 -28326.8168664849  -0.000001050648 0.00000153  0.00000002  0.0000012 0.0000
438 -28326.8168662901   0.000000194719 0.00000231  0.00000003  0.0000011 0.0000
439 -28326.8168663377  -0.000000047519 0.00000248  0.00000003  0.0000011 0.0000
               *** Restarting incremental Fock matrix formation ***
                                   *** Resetting DIIS ***
440 -28326.8168657407   0.000000597003 0.00000433  0.00000003  0.0000011 0.0000
                 **** Energy Check signals convergence ****

               *****************************************************
               *                     SUCCESS                       *
               *           SCF CONVERGED AFTER 441 CYCLES          *
               *****************************************************


----------------
TOTAL SCF ENERGY
----------------

Total Energy       :       -28326.81686574 Eh         -770811.87424 eV

Components:
Nuclear Repulsion  :         1176.34218769 Eh           32009.89828 eV
Electronic Energy  :       -29503.15905343 Eh         -802821.77251 eV
One Electron Energy:       -40799.48411704 Eh        -1110210.40483 eV
Two Electron Energy:        11296.32506361 Eh          307388.63232 eV

Virial components:
Potential Energy   :       -80475.37932279 Eh        -2189846.40101 eV
Kinetic Energy     :        52148.56245705 Eh         1419034.52678 eV
Virial Ratio       :            1.54319459


---------------
SCF CONVERGENCE
---------------

  Last Energy change         ...    4.3474e-09  Tolerance :   1.0000e-08
  Last MAX-Density change    ...    7.2207e-07  Tolerance :   1.0000e-07
  Last RMS-Density change    ...    6.4547e-09  Tolerance :   5.0000e-09
  Last DIIS Error            ...    9.6098e-07  Tolerance :   5.0000e-07

             **** THE GBW FILE WAS UPDATED (/home/nikolayandreadi_2125/_scratch/MP2/UOH5.gbw) ****
             **** DENSITY FILE WAS UPDATED (/home/nikolayandreadi_2125/_scratch/MP2/UOH5.scfp.tmp) ****
             **** ENERGY FILE WAS UPDATED (/home/nikolayandreadi_2125/_scratch/MP2/UOH5.en.tmp) ****
----------------------
UHF SPIN CONTAMINATION
----------------------

Expectation value of <S**2>     :     0.761396
Ideal value S*(S+1) for S=0.5   :     0.750000
Deviation                       :     0.011396

----------------
ORBITAL ENERGIES
----------------
                 SPIN UP ORBITALS
  NO   OCC          E(Eh)            E(eV) 
   0   1.0000   -4260.578545   -115936.2363 
   1   1.0000    -804.534192    -21892.4883 
   2   1.0000    -675.187745    -18372.7926 
   3   1.0000    -675.187712    -18372.7917 
   4   1.0000    -675.187592    -18372.7884 
   5   1.0000    -206.591872     -5621.6506 
   6   1.0000    -169.973012     -4625.2008 
   7   1.0000    -169.971160     -4625.1504 
   8   1.0000    -169.970770     -4625.1398 
   9   1.0000    -135.405936     -3684.5828 
  10   1.0000    -135.405834     -3684.5801 
  11   1.0000    -135.404867     -3684.5537 
  12   1.0000    -135.397855     -3684.3630 
  13   1.0000    -135.396346     -3684.3219 
  14   1.0000     -54.566745     -1484.8366 
  15   1.0000     -42.325670     -1151.7400 
  16   1.0000     -42.322186     -1151.6452 
  17   1.0000     -42.321167     -1151.6175 
  18   1.0000     -29.083072      -791.3906 
  19   1.0000     -29.081233      -791.3406 
  20   1.0000     -29.080549      -791.3220 
  21   1.0000     -29.079127      -791.2833 
  22   1.0000     -29.077898      -791.2498 
  23   1.0000     -20.551164      -559.2256 
  24   1.0000     -20.550367      -559.2039 
  25   1.0000     -20.549551      -559.1817 
  26   1.0000     -20.548594      -559.1557 
  27   1.0000     -20.547782      -559.1336 
  28   1.0000     -15.338994      -417.3953 
  29   1.0000     -15.302626      -416.4056 
  30   1.0000     -15.302013      -416.3889 
  31   1.0000     -15.301864      -416.3849 
  32   1.0000     -15.295319      -416.2068 
  33   1.0000     -15.295068      -416.2000 
  34   1.0000     -15.294576      -416.1866 
  35   1.0000     -12.869904      -350.2079 
  36   1.0000      -8.951487      -243.5823 
  37   1.0000      -8.950899      -243.5664 
  38   1.0000      -8.950683      -243.5605 
  39   1.0000      -4.441870      -120.8694 
  40   1.0000      -4.441312      -120.8542 
  41   1.0000      -4.439938      -120.8169 
  42   1.0000      -4.386351      -119.3587 
  43   1.0000      -4.383617      -119.2843 
  44   1.0000      -2.314954       -62.9931 
  45   1.0000      -1.385389       -37.6983 
  46   1.0000      -1.383679       -37.6518 
  47   1.0000      -1.362716       -37.0814 
  48   1.0000      -1.297003       -35.2932 
  49   1.0000      -1.289492       -35.0889 
  50   1.0000      -1.164747       -31.6944 
  51   1.0000      -1.137908       -30.9640 
  52   1.0000      -1.136221       -30.9181 
  53   1.0000      -0.700076       -19.0500 
  54   1.0000      -0.662354       -18.0236 
  55   1.0000      -0.661818       -18.0090 
  56   1.0000      -0.621091       -16.9008 
  57   1.0000      -0.617779       -16.8106 
  58   1.0000      -0.558180       -15.1889 
  59   1.0000      -0.525170       -14.2906 
  60   1.0000      -0.523816       -14.2538 
  61   1.0000      -0.520109       -14.1529 
  62   1.0000      -0.489108       -13.3093 
  63   1.0000      -0.486057       -13.2263 
  64   1.0000      -0.484547       -13.1852 
  65   1.0000      -0.480808       -13.0835 
  66   1.0000      -0.468833       -12.7576 
  67   1.0000      -0.466770       -12.7014 
  68   1.0000      -0.462619       -12.5885 
  69   0.0000       0.025172         0.6850 
  70   0.0000       0.068056         1.8519 
  71   0.0000       0.126089         3.4311 
  72   0.0000       0.127413         3.4671 
  73   0.0000       0.133125         3.6225 
  74   0.0000       0.134149         3.6504 
  75   0.0000       0.137228         3.7342 
  76   0.0000       0.140480         3.8227 
  77   0.0000       0.142007         3.8642 
  78   0.0000       0.147874         4.0239 
  79   0.0000       0.149105         4.0573 
  80   0.0000       0.154804         4.2124 
  81   0.0000       0.155975         4.2443 
  82   0.0000       0.166165         4.5216 
  83   0.0000       0.167123         4.5477 
  84   0.0000       0.171614         4.6699 
  85   0.0000       0.196301         5.3416 
  86   0.0000       0.206577         5.6213 
  87   0.0000       0.211337         5.7508 
  88   0.0000       0.231282         6.2935 
  89   0.0000       0.253706         6.9037 
  90   0.0000       0.258522         7.0347 
  91   0.0000       0.275945         7.5088 
  92   0.0000       0.297709         8.1011 
  93   0.0000       0.310676         8.4539 
  94   0.0000       0.399789        10.8788 
  95   0.0000       0.442532        12.0419 
  96   0.0000       0.480263        13.0686 
  97   0.0000       0.491064        13.3625 
  98   0.0000       0.496286        13.5046 
  99   0.0000       0.543230        14.7820 
 100   0.0000       0.548633        14.9291 
 101   0.0000       0.564319        15.3559 
 102   0.0000       0.581625        15.8268 
 103   0.0000       0.615799        16.7567 
 104   0.0000       0.626882        17.0583 
 105   0.0000       0.631029        17.1712 
 106   0.0000       0.651676        17.7330 
 107   0.0000       0.653446        17.7812 
 108   0.0000       0.661150        17.9908 
 109   0.0000       0.664657        18.0862 
 110   0.0000       0.680626        18.5208 
 111   0.0000       0.693318        18.8661 
 112   0.0000       0.701760        19.0959 
 113   0.0000       0.712384        19.3850 
 114   0.0000       0.718698        19.5568 
 115   0.0000       0.726273        19.7629 
 116   0.0000       0.747539        20.3416 
 117   0.0000       0.751110        20.4387 
 118   0.0000       0.754946        20.5431 
 119   0.0000       0.760203        20.6862 
 120   0.0000       0.778068        21.1723 
 121   0.0000       0.787302        21.4236 
 122   0.0000       0.789336        21.4789 
 123   0.0000       0.830521        22.5996 
 124   0.0000       0.838692        22.8220 
 125   0.0000       0.850670        23.1479 
 126   0.0000       0.862012        23.4565 
 127   0.0000       0.922455        25.1013 
 128   0.0000       0.952856        25.9285 
 129   0.0000       0.978826        26.6352 
 130   0.0000       1.033501        28.1230 
 131   0.0000       1.057602        28.7788 
 132   0.0000       1.103401        30.0251 
 133   0.0000       1.118430        30.4340 
 134   0.0000       1.144670        31.1480 
 135   0.0000       1.188383        32.3376 
 136   0.0000       1.278477        34.7891 
 137   0.0000       1.305137        35.5146 
 138   0.0000       1.349678        36.7266 
 139   0.0000       1.363190        37.0943 
 140   0.0000       1.389563        37.8119 
 141   0.0000       1.455402        39.6035 
 142   0.0000       1.472047        40.0564 
 143   0.0000       1.477845        40.2142 
 144   0.0000       1.588658        43.2296 
 145   0.0000       1.618836        44.0508 
 146   0.0000       1.638100        44.5750 
 147   0.0000       1.654660        45.0256 
 148   0.0000       1.688907        45.9575 
 149   0.0000       1.745557        47.4990 
 150   0.0000       1.757358        47.8201 
 151   0.0000       1.777788        48.3761 
 152   0.0000       1.793238        48.7965 
 153   0.0000       1.807419        49.1824 
 154   0.0000       1.827698        49.7342 
 155   0.0000       1.850691        50.3599 
 156   0.0000       1.882669        51.2300 
 157   0.0000       1.902328        51.7650 
 158   0.0000       1.916678        52.1555 
 159   0.0000       1.929112        52.4938 
 160   0.0000       1.941826        52.8398 
 161   0.0000       1.984856        54.0107 
 162   0.0000       1.991813        54.2000 
 163   0.0000       2.008211        54.6462 
 164   0.0000       2.018569        54.9281 
 165   0.0000       2.062073        56.1119 
 166   0.0000       2.082257        56.6611 
 167   0.0000       2.126947        57.8772 
 168   0.0000       2.127707        57.8978 
 169   0.0000       2.161777        58.8250 
 170   0.0000       2.190193        59.5982 
 171   0.0000       2.195753        59.7495 
 172   0.0000       2.212736        60.2116 
 173   0.0000       2.246107        61.1197 
 174   0.0000       2.272466        61.8370 
 175   0.0000       2.291163        62.3457 
 176   0.0000       2.385236        64.9056 
 177   0.0000       2.453700        66.7686 
 178   0.0000       2.462431        67.0062 
 179   0.0000       2.482633        67.5559 
 180   0.0000       2.530029        68.8456 
 181   0.0000       2.550789        69.4105 
 182   0.0000       2.573958        70.0410 
 183   0.0000       2.590464        70.4901 
 184   0.0000       2.614058        71.1321 
 185   0.0000       2.644162        71.9513 
 186   0.0000       2.653717        72.2113 
 187   0.0000       2.656386        72.2839 
 188   0.0000       2.766252        75.2736 
 189   0.0000       2.791303        75.9552 
 190   0.0000       2.835326        77.1531 
 191   0.0000       2.866051        77.9892 
 192   0.0000       2.974692        80.9455 
 193   0.0000       3.077263        83.7366 
 194   0.0000       3.088155        84.0330 
 195   0.0000       3.090298        84.0913 
 196   0.0000       3.098616        84.3176 
 197   0.0000       3.112540        84.6965 
 198   0.0000       3.122944        84.9796 
 199   0.0000       3.148948        85.6872 
 200   0.0000       3.172917        86.3395 
 201   0.0000       3.177260        86.4576 
 202   0.0000       3.198218        87.0279 
 203   0.0000       3.246148        88.3322 
 204   0.0000       3.309968        90.0688 
 205   0.0000       3.321526        90.3833 
 206   0.0000       3.349908        91.1556 
 207   0.0000       3.352067        91.2144 
 208   0.0000       3.549732        96.5931 
 209   0.0000       3.830655       104.2374 
 210   0.0000       3.834843       104.3514 
 211   0.0000       3.879602       105.5693 
 212   0.0000       3.895146       105.9923 
 213   0.0000       3.913895       106.5025 
 214   0.0000       4.024500       109.5122 
 215   0.0000       4.068259       110.7029 
 216   0.0000       4.075477       110.8994 
 217   0.0000       4.120255       112.1178 
 218   0.0000       4.152308       112.9900 
 219   0.0000       4.198369       114.2434 
 220   0.0000       4.199947       114.2864 
 221   0.0000       4.234941       115.2386 
 222   0.0000       4.312113       117.3386 
 223   0.0000       4.348467       118.3278 
 224   0.0000       4.391618       119.5020 
 225   0.0000       5.563227       151.3831 
 226   0.0000       5.567093       151.4883 
 227   0.0000       5.582042       151.8951 
 228   0.0000       5.586400       152.0137 
 229   0.0000       5.587519       152.0441 
 230   0.0000       5.589339       152.0937 
 231   0.0000       5.592866       152.1896 
 232   0.0000       5.597236       152.3085 
 233   0.0000       5.598056       152.3309 
 234   0.0000       5.601877       152.4348 
 235   0.0000       5.603103       152.4682 
 236   0.0000       5.606967       152.5733 
 237   0.0000       5.611216       152.6890 
 238   0.0000       5.612550       152.7252 
 239   0.0000       5.616992       152.8461 
 240   0.0000       5.623308       153.0180 
 241   0.0000       5.689331       154.8146 
 242   0.0000       5.699352       155.0873 
 243   0.0000       5.718857       155.6180 
 244   0.0000       5.723106       155.7336 
 245   0.0000       5.874188       159.8448 
 246   0.0000       5.876509       159.9079 
 247   0.0000       5.890521       160.2892 
 248   0.0000       5.899705       160.5391 
 249   0.0000       5.914660       160.9461 
 250   0.0000       5.931799       161.4125 
 251   0.0000       5.937102       161.5568 
 252   0.0000       5.955499       162.0574 
 253   0.0000       5.987105       162.9174 
 254   0.0000       5.994530       163.1195 
 255   0.0000       6.672789       181.5758 
 256   0.0000       6.728747       183.0985 
 257   0.0000       6.738861       183.3737 
 258   0.0000       6.758639       183.9119 
 259   0.0000       6.771101       184.2510 
 260   0.0000       6.795932       184.9267 
 261   0.0000       6.811628       185.3538 
 262   0.0000       6.818971       185.5536 
 263   0.0000       6.833456       185.9478 
 264   0.0000       6.879553       187.2022 
 265   0.0000       6.904955       187.8934 
 266   0.0000       6.913112       188.1153 
 267   0.0000       6.928605       188.5369 
 268   0.0000       6.947039       189.0385 
 269   0.0000       6.972102       189.7205 
 270   0.0000       7.002481       190.5472 
 271   0.0000       7.016123       190.9184 
 272   0.0000       7.077643       192.5925 
 273   0.0000       7.081762       192.7046 
 274   0.0000       7.105369       193.3469 
 275   0.0000       7.151798       194.6103 
 276   0.0000       7.177117       195.2993 
 277   0.0000       7.294742       198.5000 
 278   0.0000       7.329322       199.4410 
 279   0.0000       7.333932       199.5664 
 280   0.0000       7.479613       203.5306 
 281   0.0000       7.572555       206.0597 
 282   0.0000       7.578946       206.2336 
 283   0.0000       7.618781       207.3176 
 284   0.0000       7.632230       207.6835 
 285   0.0000       8.280533       225.3247 
 286   0.0000       8.585161       233.6141 
 287   0.0000       8.606229       234.1874 
 288   0.0000       9.106411       247.7980 
 289   0.0000       9.109591       247.8846 
 290   0.0000       9.144454       248.8333 
 291   0.0000       9.304241       253.1813 
 292   0.0000       9.383852       255.3476 
 293   0.0000       9.845694       267.9150 
 294   0.0000      13.641956       371.2165 
 295   0.0000      13.732272       373.6741 
 296   0.0000      13.735400       373.7592 
 297   0.0000      13.773042       374.7835 
 298   0.0000      13.812468       375.8564 
 299   0.0000      13.877370       377.6224 
 300   0.0000      13.884698       377.8218 
 301   0.0000      15.358921       417.9375 
 302   0.0000      15.363676       418.0669 
 303   0.0000      15.416008       419.4909 
 304   0.0000      15.481959       421.2855 
 305   0.0000      15.512593       422.1191 
 306   0.0000      44.295564      1205.3436 
 307   0.0000      46.808066      1273.7122 
 308   0.0000      46.809479      1273.7507 
 309   0.0000      46.827141      1274.2313 
 310   0.0000      46.893092      1276.0259 
 311   0.0000      46.970477      1278.1317 
 312   0.0000      47.499748      1292.5339 
 313   0.0000      47.684957      1297.5736 
 314   0.0000      47.696644      1297.8917 
 315   0.0000      53.229683      1448.4533 
 316   0.0000      53.277563      1449.7562 
 317   0.0000      53.279253      1449.8022 
 318   0.0000      53.298757      1450.3329 
 319   0.0000      53.315102      1450.7777 
 320   0.0000      53.352987      1451.8086 
 321   0.0000      53.357388      1451.9283 
 322   0.0000      78.981998      2149.2094 
 323   0.0000      78.989134      2149.4036 
 324   0.0000      79.051070      2151.0890 
 325   0.0000      79.117152      2152.8872 
 326   0.0000      79.152445      2153.8475 
[...]
      f-3     :     0.000003
  1 U s       :     0.008723  s :     0.008723
      pz      :     0.000351  p :    -0.001676
      px      :    -0.001052
      py      :    -0.000974
      dz2     :     0.010979  d :     0.058514
      dxz     :     0.011859
      dyz     :     0.009856
      dx2y2   :     0.008537
      dxy     :     0.017283
      f0      :     0.186185  f :     1.047356
      f+1     :     0.075544
      f-1     :     0.178728
      f+2     :     0.073443
      f-2     :     0.226988
      f+3     :     0.295623
      f-3     :     0.010845
  2 O s       :    -0.002287  s :    -0.002287
      pz      :    -0.007852  p :    -0.015476
      px      :    -0.003675
      py      :    -0.003950
      dz2     :    -0.000007  d :     0.000055
      dxz     :    -0.000074
      dyz     :    -0.000016
      dx2y2   :     0.000029
      dxy     :     0.000123
      f0      :     0.000002  f :     0.000018
      f+1     :     0.000005
      f-1     :     0.000000
      f+2     :     0.000001
      f-2     :     0.000002
      f+3     :     0.000004
      f-3     :     0.000005
  3 O s       :    -0.002091  s :    -0.002091
      pz      :    -0.004144  p :    -0.018214
      px      :    -0.007467
      py      :    -0.006603
      dz2     :    -0.000107  d :    -0.000081
      dxz     :    -0.000055
      dyz     :    -0.000080
      dx2y2   :     0.000020
      dxy     :     0.000141
      f0      :     0.000006  f :     0.000025
      f+1     :     0.000002
      f-1     :     0.000005
      f+2     :     0.000002
      f-2     :     0.000005
      f+3     :     0.000005
      f-3     :    -0.000001
  4 O s       :    -0.002732  s :    -0.002732
      pz      :    -0.008155  p :    -0.019345
      px      :    -0.006849
      py      :    -0.004341
      dz2     :     0.000012  d :    -0.000129
      dxz     :     0.000027
      dyz     :    -0.000110
      dx2y2   :    -0.000064
      dxy     :     0.000005
      f0      :     0.000003  f :     0.000018
      f+1     :     0.000001
      f-1     :     0.000003
      f+2     :     0.000001
      f-2     :     0.000001
      f+3     :     0.000007
      f-3     :     0.000002
  5 O s       :    -0.002291  s :    -0.002291
      pz      :    -0.008180  p :    -0.015472
      px      :    -0.003420
      py      :    -0.003872
      dz2     :     0.000002  d :     0.000054
      dxz     :    -0.000013
      dyz     :     0.000087
      dx2y2   :    -0.000086
      dxy     :     0.000064
      f0      :     0.000001  f :     0.000018
      f+1     :     0.000004
      f-1     :    -0.000000
      f+2     :     0.000002
      f-2     :     0.000005
      f+3     :     0.000001
      f-3     :     0.000005
  6 H s       :    -0.002490  s :    -0.002490
      pz      :    -0.000090  p :    -0.000074
      px      :     0.000017
      py      :    -0.000001
  7 H s       :    -0.002946  s :    -0.002946
      pz      :    -0.000083  p :    -0.000140
      px      :    -0.000061
      py      :     0.000003
  8 H s       :    -0.001379  s :    -0.001379
      pz      :    -0.000006  p :    -0.000124
      px      :    -0.000065
      py      :    -0.000052
  9 H s       :    -0.002486  s :    -0.002486
      pz      :    -0.000062  p :    -0.000074
      px      :    -0.000005
      py      :    -0.000007
 10 H s       :    -0.002945  s :    -0.002945
      pz      :    -0.000073  p :    -0.000140
      px      :    -0.000058
      py      :    -0.000009


                     *******************************
                     * LOEWDIN POPULATION ANALYSIS *
                     *******************************

-----------------------------------------
LOEWDIN ATOMIC CHARGES AND SPIN DENSITIES
-----------------------------------------
   0 O :   -0.169471   -0.018790
   1 U :   -0.001099    1.091047
   2 O :   -0.182952   -0.014496
   3 O :   -0.164020   -0.014727
   4 O :   -0.169718   -0.018794
   5 O :   -0.182956   -0.014500
   6 H :    0.172722   -0.001827
   7 H :    0.172615   -0.002352
   8 H :    0.179618   -0.001386
   9 H :    0.172718   -0.001825
  10 H :    0.172542   -0.002351

--------------------------------------------------
LOEWDIN REDUCED ORBITAL CHARGES AND SPIN DENSITIES
--------------------------------------------------
CHARGE
  0 O s       :     3.407017  s :     3.407017
      pz      :     1.614617  p :     4.674746
      px      :     1.647023
      py      :     1.413105
      dz2     :     0.013319  d :     0.081638
      dxz     :     0.007431
      dyz     :     0.016839
      dx2y2   :     0.027992
      dxy     :     0.016058
      f0      :     0.000789  f :     0.006070
      f+1     :     0.000395
      f-1     :     0.000814
      f+2     :     0.000993
      f-2     :     0.000681
      f+3     :     0.001268
      f-3     :     0.001129
  1 U s       :    12.075934  s :    12.075934
      pz      :    10.019861  p :    30.068654
      px      :    10.024569
      py      :    10.024223
      dz2     :     6.479632  d :    32.480016
      dxz     :     6.493105
      dyz     :     6.490468
      dx2y2   :     6.539454
      dxy     :     6.477358
      f0      :     2.491812  f :    17.376495
      f+1     :     2.358214
      f-1     :     2.470491
      f+2     :     2.474407
      f-2     :     2.518006
      f+3     :     2.671965
      f-3     :     2.391600
  2 O s       :     3.408466  s :     3.408466
      pz      :     1.572982  p :     4.686880
      px      :     1.442447
      py      :     1.671452
      dz2     :     0.008851  d :     0.081484
      dxz     :     0.034506
      dyz     :     0.007373
      dx2y2   :     0.022085
      dxy     :     0.008671
      f0      :     0.000870  f :     0.006122
      f+1     :     0.000849
      f-1     :     0.000383
      f+2     :     0.001847
      f-2     :     0.000578
      f+3     :     0.001038
      f-3     :     0.000558
  3 O s       :     3.396084  s :     3.396084
      pz      :     1.442234  p :     4.674170
      px      :     1.629097
      py      :     1.602839
      dz2     :     0.026856  d :     0.087178
      dxz     :     0.015689
      dyz     :     0.027917
      dx2y2   :     0.007643
      dxy     :     0.009074
      f0      :     0.000997  f :     0.006587
      f+1     :     0.001085
      f-1     :     0.002078
      f+2     :     0.000679
      f-2     :     0.000937
      f+3     :     0.000426
      f-3     :     0.000385
  4 O s       :     3.407108  s :     3.407108
      pz      :     1.596481  p :     4.674991
      px      :     1.642508
      py      :     1.436002
      dz2     :     0.009607  d :     0.081554
      dxz     :     0.009583
      dyz     :     0.025278
      dx2y2   :     0.020249
      dxy     :     0.016837
      f0      :     0.000918  f :     0.006065
      f+1     :     0.000399
      f-1     :     0.000615
      f+2     :     0.001174
      f-2     :     0.000983
      f+3     :     0.001179
      f-3     :     0.000797
  5 O s       :     3.408461  s :     3.408461
      pz      :     1.630414  p :     4.686901
      px      :     1.396977
      py      :     1.659509
      dz2     :     0.015853  d :     0.081473
      dxz     :     0.011074
      dyz     :     0.006665
      dx2y2   :     0.030763
      dxy     :     0.017117
      f0      :     0.000595  f :     0.006121
      f+1     :     0.001149
      f-1     :     0.000420
      f+2     :     0.000704
      f-2     :     0.000501
      f+3     :     0.001406
      f-3     :     0.001346
  6 H s       :     0.655379  s :     0.655379
      pz      :     0.043393  p :     0.171899
      px      :     0.082726
      py      :     0.045779
  7 H s       :     0.656292  s :     0.656292
      pz      :     0.046344  p :     0.171092
      px      :     0.046595
      py      :     0.078153
  8 H s       :     0.648239  s :     0.648239
      pz      :     0.075730  p :     0.172144
      px      :     0.045203
      py      :     0.051211
  9 H s       :     0.655367  s :     0.655367
      pz      :     0.052702  p :     0.171915
      px      :     0.075391
      py      :     0.043822
 10 H s       :     0.656352  s :     0.656352
      pz      :     0.048601  p :     0.171106
      px      :     0.047183
      py      :     0.075323

SPIN
  0 O s       :    -0.002533  s :    -0.002533
      pz      :    -0.006416  p :    -0.015641
      px      :    -0.005170
      py      :    -0.004055
      dz2     :    -0.000085  d :    -0.000657
      dxz     :     0.000147
      dyz     :    -0.000120
      dx2y2   :    -0.000490
      dxy     :    -0.000109
      f0      :     0.000003  f :     0.000041
      f+1     :    -0.000000
      f-1     :     0.000009
      f+2     :     0.000006
      f-2     :     0.000014
      f+3     :     0.000006
      f-3     :     0.000003
  1 U s       :     0.001402  s :     0.001402
      pz      :     0.003448  p :     0.007127
      px      :     0.001878
      py      :     0.001801
      dz2     :     0.007589  d :     0.045454
      dxz     :     0.008683
      dyz     :     0.007052
      dx2y2   :     0.007148
      dxy     :     0.014982
      f0      :     0.184429  f :     1.037064
      f+1     :     0.074724
      f-1     :     0.177569
      f+2     :     0.071687
      f-2     :     0.225501
      f+3     :     0.293208
      f-3     :     0.009945
  2 O s       :    -0.002171  s :    -0.002171
      pz      :    -0.006933  p :    -0.012199
      px      :    -0.002508
      py      :    -0.002758
      dz2     :     0.000027  d :    -0.000182
      dxz     :    -0.000548
      dyz     :     0.000021
      dx2y2   :    -0.000030
      dxy     :     0.000348
      f0      :     0.000007  f :     0.000056
      f+1     :     0.000003
      f-1     :     0.000002
      f+2     :    -0.000001
      f-2     :     0.000010
      f+3     :     0.000015
      f-3     :     0.000021
  3 O s       :    -0.001722  s :    -0.001722
      pz      :    -0.002655  p :    -0.013040
      px      :    -0.005565
      py      :    -0.004819
      dz2     :    -0.000195  d :    -0.000036
      dxz     :    -0.000016
      dyz     :    -0.000198
      dx2y2   :     0.000087
      dxy     :     0.000285
      f0      :     0.000017  f :     0.000072
      f+1     :     0.000007
      f-1     :     0.000009
      f+2     :     0.000008
      f-2     :     0.000015
      f+3     :     0.000016
      f-3     :    -0.000000
  4 O s       :    -0.002533  s :    -0.002533
      pz      :    -0.006907  p :    -0.015644
      px      :    -0.005286
      py      :    -0.003451
      dz2     :     0.000058  d :    -0.000658
      dxz     :     0.000052
      dyz     :    -0.000458
      dx2y2   :    -0.000239
      dxy     :    -0.000070
      f0      :     0.000007  f :     0.000040
      f+1     :     0.000004
      f-1     :     0.000007
      f+2     :     0.000000
      f-2     :     0.000002
      f+3     :     0.000016
      f-3     :     0.000004
  5 O s       :    -0.002173  s :    -0.002173
      pz      :    -0.006864  p :    -0.012198
      px      :    -0.002563
      py      :    -0.002771
      dz2     :    -0.000121  d :    -0.000184
      dxz     :     0.000055
      dyz     :     0.000186
      dx2y2   :    -0.000386
      dxy     :     0.000082
      f0      :     0.000002  f :     0.000056
      f+1     :     0.000009
      f-1     :    -0.000001
      f+2     :     0.000004
      f-2     :     0.000019
      f+3     :     0.000007
      f-3     :     0.000017
  6 H s       :    -0.001498  s :    -0.001498
      pz      :    -0.000244  p :    -0.000329
      px      :    -0.000044
      py      :    -0.000040
  7 H s       :    -0.001821  s :    -0.001821
      pz      :    -0.000223  p :    -0.000531
      px      :    -0.000182
      py      :    -0.000125
  8 H s       :    -0.000888  s :    -0.000888
      pz      :    -0.000101  p :    -0.000499
      px      :    -0.000217
      py      :    -0.000181
  9 H s       :    -0.001496  s :    -0.001496
      pz      :    -0.000253  p :    -0.000329
      px      :    -0.000037
      py      :    -0.000038
 10 H s       :    -0.001821  s :    -0.001821
      pz      :    -0.000252  p :    -0.000530
      px      :    -0.000189
      py      :    -0.000089


                      *****************************
                      * MAYER POPULATION ANALYSIS *
                      *****************************

  NA   - Mulliken gross atomic population
  ZA   - Total nuclear charge
  QA   - Mulliken gross atomic charge
  VA   - Mayer's total valence
  BVA  - Mayer's bonded valence
  FA   - Mayer's free valence

  ATOM       NA         ZA         QA         VA         BVA        FA
  0 O      8.8155     8.0000    -0.8155     1.8324     1.3752     0.4572
  1 U     89.5600    92.0000     2.4400     4.1274     2.0783     2.0491
  2 O      8.8021     8.0000    -0.8021     1.7199     1.2629     0.4570
  3 O      8.7910     8.0000    -0.7910     1.6078     1.1519     0.4559
  4 O      8.8157     8.0000    -0.8157     1.8332     1.3761     0.4572
  5 O      8.8020     8.0000    -0.8020     1.7199     1.2629     0.4571
  6 H      0.6832     1.0000     0.3168     0.9261     0.8763     0.0498
  7 H      0.6871     1.0000     0.3129     0.9289     0.8785     0.0504
  8 H      0.6731     1.0000     0.3269     0.9199     0.8718     0.0481
  9 H      0.6832     1.0000     0.3168     0.9261     0.8763     0.0498
 10 H      0.6871     1.0000     0.3129     0.9289     0.8784     0.0504

  Mayer bond orders larger than 0.1
B(  0-O ,  1-U ) :   0.4792 B(  0-O ,  7-H ) :   0.8400 B(  1-U ,  2-O ) :   0.3635 
B(  1-U ,  3-O ) :   0.2307 B(  1-U ,  4-O ) :   0.4803 B(  1-U ,  5-O ) :   0.3637 
B(  2-O ,  9-H ) :   0.8398 B(  3-O ,  8-H ) :   0.8387 B(  4-O , 10-H ) :   0.8401 
B(  5-O ,  6-H ) :   0.8398 


----------------------------------
MP2 DERIVATIVE INTEGRAL GENERATION
----------------------------------


Input Wavefunction Amplitudes       ... /home/nikolayandreadi_2125/_scratch/MP2/UOH5.mp2tbb.tmp.proc19
Input Correlated Electron Density   ... /home/nikolayandreadi_2125/_scratch/MP2/UOH5.pmp2re
Input Energy Weighted Density       ... /home/nikolayandreadi_2125/_scratch/MP2/UOH5.wmp2.tmp
Input SCF Electron Density          ... /home/nikolayandreadi_2125/_scratch/MP2/UOH5.scfp.tmp

One-Electron Terms    ...
                        ... One-Electron Terms done
Prescreening matrices              ... done

Batch handling in the gradient evaluation:
Memory available                      ... 31500.0 MB
Memory per occupied orbital in Q2     ...   54.8 MB
Memory per occupied orbital in Q3     ...    0.1 MB
Total memory requirement per |i>      ...   55.0 MB
Max. Number of orbitals possible      ...    573
Number of orbitals treated per batch  ...     59
Number of batches to be done          ...      1
Batch   0: i=   39 ...    97

---------------------------------------
MP2 TOTAL ENERGY:   -28328.954316974 Eh
---------------------------------------

-----------------------------------
NORM OF THE MP2 GRADIENT:  0.000540
-----------------------------------

-------------------------   --------------------
FINAL SINGLE POINT ENERGY    -28328.954316973563
-------------------------   --------------------

                                *** OPTIMIZATION RUN DONE ***

                            ***************************************
                            *     ORCA property calculations      *
                            ***************************************

                                    ---------------------
                                    Active property flags
                                    ---------------------
   (+) Dipole Moment


------------------------------------------------------------------------------
                       ORCA ELECTRIC PROPERTIES CALCULATION
------------------------------------------------------------------------------

Dipole Moment Calculation                       ... on
Quadrupole Moment Calculation                   ... off
Polarizability Calculation                      ... off
GBWName                                         ... /home/nikolayandreadi_2125/_scratch/MP2/UOH5.gbw
Electron density file                           ... /home/nikolayandreadi_2125/_scratch/MP2/UOH5.scfp.tmp
The origin for moment calculation is the CENTER OF MASS  = (12.020679, -7.087965  0.455659)

-------------
DIPOLE MOMENT
-------------
                                X             Y             Z
Electronic contribution:      0.37160       0.67617       1.32447
Nuclear contribution   :     -0.41331      -0.74675      -1.46322
                        -----------------------------------------
Total Dipole Moment    :     -0.04171      -0.07058      -0.13875
                        -----------------------------------------
Magnitude (a.u.)       :      0.16116
Magnitude (Debye)      :      0.40964


                         *** MP2 UNRELAXED DENSITY ***

------------------------------------------------------------------------------
                       ORCA ELECTRIC PROPERTIES CALCULATION
------------------------------------------------------------------------------

Dipole Moment Calculation                       ... on
Quadrupole Moment Calculation                   ... off
Polarizability Calculation                      ... off
GBWName                                         ... /home/nikolayandreadi_2125/_scratch/MP2/UOH5.gbw
Electron density file                           ... /home/nikolayandreadi_2125/_scratch/MP2/UOH5.pmp2ur
The origin for moment calculation is the CENTER OF MASS  = (12.020679, -7.087965  0.455659)

-------------
DIPOLE MOMENT
-------------
                                X             Y             Z
Electronic contribution:      0.37141       0.67554       1.32329
Nuclear contribution   :     -0.41331      -0.74675      -1.46322
                        -----------------------------------------
Total Dipole Moment    :     -0.04190      -0.07121      -0.13993
                        -----------------------------------------
Magnitude (a.u.)       :      0.16250
Magnitude (Debye)      :      0.41305


                           *** MP2 RELAXED DENSITY ***

------------------------------------------------------------------------------
                       ORCA ELECTRIC PROPERTIES CALCULATION
------------------------------------------------------------------------------

Dipole Moment Calculation                       ... on
Quadrupole Moment Calculation                   ... off
Polarizability Calculation                      ... off
GBWName                                         ... /home/nikolayandreadi_2125/_scratch/MP2/UOH5.gbw
Electron density file                           ... /home/nikolayandreadi_2125/_scratch/MP2/UOH5.pmp2re
The origin for moment calculation is the CENTER OF MASS  = (12.020679, -7.087965  0.455659)

-------------
DIPOLE MOMENT
-------------
                                X             Y             Z
Electronic contribution:      0.37508       0.68039       1.33352
Nuclear contribution   :     -0.41331      -0.74675      -1.46322
                        -----------------------------------------
Total Dipole Moment    :     -0.03823      -0.06636      -0.12970
                        -----------------------------------------
Magnitude (a.u.)       :      0.15062
Magnitude (Debye)      :      0.38285


Timings for individual modules:

Sum of individual times         ...    49100.371 sec (= 818.340 min)
GTO integral calculation        ...      110.662 sec (=   1.844 min)   0.2 %
Relativistic integrals          ...       39.790 sec (=   0.663 min)   0.1 %
SCF iterations                  ...     7423.563 sec (= 123.726 min)  15.1 %
MP2 module                      ...    41523.316 sec (= 692.055 min)  84.6 %
Geometry relaxation             ...        3.039 sec (=   0.051 min)   0.0 %
                             ****ORCA TERMINATED NORMALLY****
TOTAL RUN TIME: 0 days 13 hours 38 minutes 28 seconds 562 msec
