
                                 *****************
                                 * O   R   C   A *
                                 *****************

           --- An Ab Initio, DFT and Semiempirical electronic structure package ---

                  #######################################################
                  #                        -***-                        #
                  #  Department of molecular theory and spectroscopy    #
                  #              Directorship: Frank Neese              #
                  # Max Planck Institute for Chemical Energy Conversion #
                  #                  D-45470 Muelheim/Ruhr              #
                  #                       Germany                       #
                  #                                                     #
                  #                  All rights reserved                #
                  #                        -***-                        #
                  #######################################################


                         Program Version 4.0.1.2 - RELEASE -


 With contributions from (in alphabetic order):
   Daniel Aravena         : Magnetic Properties
   Michael Atanasov       : Ab Initio Ligand Field Theory
   Ute Becker             : Parallelization
   Martin Brehm           : Molecular dynamics
   Dmytro Bykov           : SCF Hessian
   Vijay G. Chilkuri      : MRCI spin determinant printing
   Dipayan Datta          : RHF DLPNO-CCSD density
   Achintya Kumar Dutta   : EOM-CC, STEOM-CC
   Dmitry Ganyushin       : Spin-Orbit,Spin-Spin,Magnetic field MRCI
   Yang Guo               : DLPNO-NEVPT2, CIM, IAO-localization
   Andreas Hansen         : Spin unrestricted coupled pair/coupled cluster methods
   Lee Huntington         : MR-EOM, pCC
   Robert Izsak           : Overlap fitted RIJCOSX, COSX-SCS-MP3, EOM
   Christian Kollmar      : KDIIS, OOCD, Brueckner-CCSD(T), CCSD density
   Simone Kossmann        : Meta GGA functionals, TD-DFT gradient, OOMP2, MP2 Hessian
   Martin Krupicka        : AUTO-CI
   Dagmar Lenk            : GEPOL surface
   Dimitrios Liakos       : Extrapolation schemes; parallel MDCI
   Dimitrios Manganas     : ROCIS; embedding schemes
   Dimitrios Pantazis     : SARC Basis sets
   Taras Petrenko         : DFT Hessian,TD-DFT gradient, ASA, ECA, R-Raman, ABS, FL, XAS/XES, NRVS
   Peter Pinski           : DLPNO-MP2
   Christoph Reimann      : Effective Core Potentials
   Marius Retegan         : Local ZFS, SOC
   Christoph Riplinger    : Optimizer, TS searches, QM/MM, DLPNO-CCSD(T), (RO)-DLPNO pert. Triples
   Tobias Risthaus        : Range-separated hybrids, TD-DFT gradient, RPA, STAB
   Michael Roemelt        : Restricted open shell CIS
   Masaaki Saitow         : Open-shell DLPNO
   Barbara Sandhoefer     : DKH picture change effects
   Kantharuban Sivalingam : CASSCF convergence, NEVPT2, FIC-MRCI
   Georgi Stoychev        : AutoAux
   Boris Wezisla          : Elementary symmetry handling
   Frank Wennmohs         : Technical directorship


 We gratefully acknowledge several colleagues who have allowed us to
 interface, adapt or use parts of their codes:
   Stefan Grimme, W. Hujo, H. Kruse,             : VdW corrections, initial TS optimization,
                  C. Bannwarth                     DFT functionals, gCP, sTDA/sTD-DF
   Ed Valeev                                     : LibInt (2-el integral package), F12 methods
   Garnet Chan, S. Sharma, J. Yang, R. Olivares  : DMRG
   Ulf Ekstrom                                   : XCFun DFT Library
   Mihaly Kallay                                 : mrcc  (arbitrary order and MRCC methods)
   Andreas Klamt, Michael Diedenhofen            : otool_cosmo (COSMO solvation model)
   Jiri Pittner, Ondrej Demel                    : Mk-CCSD
   Frank Weinhold                                : gennbo (NPA and NBO analysis)
   Christopher J. Cramer and Donald G. Truhlar   : smd solvation model


 Your calculation uses the libint2 library for the computation of 2-el integrals
 For citations please refer to: http://libint.valeyev.net

 This ORCA versions uses:
   CBLAS   interface :  Fast vector & matrix operations
   LAPACKE interface :  Fast linear algebra routines
   SCALAPACK package :  Parallel linear algebra routines


Your calculation utilizes the basis: DKH-def2-TZVP
   Exponents from def2-TZVP [F. Weigend and R. Ahlrichs, Phys. Chem. Chem. Phys. 7, 3297 (2005)],
   recontracted for DKH2 by D. A. Pantazis.

Your calculation utilizes the auxiliary basis: SARC/J 
   decontracted def2/J up to Kr:
   F. Weigend, Phys. Chem. Chem. Phys. 8, 1057 (2006)
   and SARC auxiliary basis sets beyond Kr:
   D. A. Pantazis and F. Neese, J. Chem. Theory Comput. 5, 2229 (2009).
   D. A. Pantazis, X. Y. Chen, C. R. Landis and F. Neese, J. Chem. Theory Comput. 4, 908 (2008).
   D. A. Pantazis and F. Neese, Theor. Chem. Acc. 131, 1292 (2012).
   D. A. Pantazis and F. Neese, J. Chem. Theory Comput. 7, 677 (2011).

================================================================================
                                        WARNINGS
                       Please study these warnings very carefully!
================================================================================

Warning: TCutStore was < 0. Adjusted to Thresh (uncritical)

WARNING: In scalar relativistic gradient/hessian runs we need the one-center approximation
  ===> : %rel OneCenter is turned on

WARNING: The frozen-core approximation for MP2-gradient calculations is turned on by default.

WARNING: Geometry Optimization
  ===> : Switching off AutoStart
         For restart on a previous wavefunction, please use MOREAD

WARNING: Post HF methods need fully converged wavefunctions
  ===> : Setting SCFConvForced true
         You can overwrite this default with %scf ConvForced false 


INFO   : the flag for use of LIBINT has been found!

================================================================================
                                       INPUT FILE
================================================================================
NAME = /home/nikolayandreadi_2125/_scratch/MP2/UOH6.inp
|  1> !Opt MP2 DKH-def2-TZVP DKH SARC/J SlowConv
|  2> 
|  3> %pal
|  4> nproc 20
|  5> end
|  6> 
|  7> %maxcore 31500
|  8> 
|  9> %basis
| 10> newgto U "SARC-DKH-TZVP" end
| 11> end
| 12> 
| 13> %scf
| 14> MaxIter 5000
| 15> Guess HCore
| 16> end
| 17> 
| 18> %method
| 19> Z_MaxIter 5000
| 20> end
| 21> 
| 22> * xyz 0 1
| 23>   O      7.743575    0.441633    2.785511
| 24>   U      5.674730    0.400737    2.873243
| 25>   O      3.632858    0.276287    3.117206
| 26>   O      5.344225    0.911330    0.896417
| 27>   O      5.689383    2.454841    3.141602
| 28>   O      5.759442   -1.593303    2.340308
| 29>   O      5.942153   -0.039965    4.870721
| 30>   H      5.039775    0.317576    0.199288
| 31>   H      2.964083    0.946878    2.933736
| 32>   H      6.478797   -2.195623    2.567558
| 33>   H      5.456942    3.055614    2.421325
| 34>   H      6.828477   -0.054514    5.254227
| 35>   H      8.321679    1.179110    2.557057
| 36> **                         ****END OF INPUT****
================================================================================

                       *****************************
                       * Geometry Optimization Run *
                       *****************************

Geometry optimization settings:
Update method            Update   .... BFGS
Choice of coordinates    CoordSys .... Redundant Internals
Initial Hessian          InHess   .... Almoef's Model

Convergence Tolerances:
Energy Change            TolE     ....  5.0000e-06 Eh
Max. Gradient            TolMAXG  ....  3.0000e-04 Eh/bohr
RMS Gradient             TolRMSG  ....  1.0000e-04 Eh/bohr
Max. Displacement        TolMAXD  ....  4.0000e-03 bohr
RMS Displacement         TolRMSD  ....  2.0000e-03 bohr

------------------------------------------------------------------------------
                        ORCA OPTIMIZATION COORDINATE SETUP
------------------------------------------------------------------------------

The optimization will be done in new redundant internal coordinates
Making redundant internal coordinates   ...  (new redundants) done
Evaluating the initial hessian          ...  (Almloef) done
Evaluating the coordinates              ...  done
Calculating the B-matrix                .... done
Calculating the G-matrix                .... done
Diagonalizing the G-matrix              .... done
The first mode is                       ....   26
The number of degrees of freedom        ....   33

    -----------------------------------------------------------------
                    Redundant Internal Coordinates


    -----------------------------------------------------------------
         Definition                    Initial Value    Approx d2E/dq
    -----------------------------------------------------------------
      1. B(U   1,O   0)                  2.0711         0.154065   
      2. B(O   2,U   1)                  2.0602         0.160390   
      3. B(O   3,U   1)                  2.0683         0.155675   
      4. B(O   4,U   1)                  2.0716         0.153781   
      5. B(O   5,U   1)                  2.0658         0.157118   
      6. B(O   6,U   1)                  2.0629         0.158768   
      7. B(H   7,O   3)                  0.9650         0.510495   
      8. B(H   8,O   2)                  0.9647         0.511087   
      9. B(H   9,O   5)                  0.9654         0.509834   
     10. B(H  10,O   4)                  0.9663         0.508041   
     11. B(H  11,O   6)                  0.9658         0.508908   
     12. B(H  12,O   0)                  0.9645         0.511424   
     13. A(U   1,O   0,H  12)          128.5983         0.311049   
     14. A(O   0,U   1,O   5)           88.1186         0.303306   
     15. A(O   3,U   1,O   5)           89.9010         0.303811   
     16. A(O   3,U   1,O   4)           83.1172         0.302769   
     17. A(O   4,U   1,O   6)           94.9034         0.303723   
     18. A(O   2,U   1,O   3)           88.2647         0.304815   
     19. A(O   0,U   1,O   3)           96.5610         0.302859   
     20. A(O   2,U   1,O   4)           92.9559         0.304218   
     21. A(O   0,U   1,O   6)           85.1667         0.303813   
     22. A(O   2,U   1,O   6)           90.0524         0.305778   
     23. A(O   4,U   1,O   5)          171.9927         0.303216   
     24. A(O   5,U   1,O   6)           92.1933         0.304769   
     25. A(O   2,U   1,O   5)           90.7382         0.305266   
     26. A(O   0,U   1,O   4)           88.7877         0.302267   
     27. A(U   1,O   2,H   8)          128.5056         0.313047   
     28. A(U   1,O   3,H   7)          126.0854         0.311481   
     29. A(U   1,O   4,H  10)          121.2119         0.310623   
     30. A(U   1,O   5,H   9)          124.8969         0.311880   
     31. A(U   1,O   6,H  11)          120.4408         0.312316   
     32. D(O   6,U   1,O   0,H  12)   -118.1628         0.001885   
     33. D(O   4,U   1,O   0,H  12)    -23.1378         0.001885   
     34. D(O   5,U   1,O   0,H  12)    149.4756         0.001885   
     35. D(O   3,U   1,O   0,H  12)     59.7918         0.001885   
     36. D(H   8,O   2,U   1,O   3)    -55.2974         0.001917   
     37. D(H   8,O   2,U   1,O   4)     27.7171         0.001917   
     38. D(H   8,O   2,O   0,H  12)      4.5164         0.001500   
     39. D(H   8,O   2,U   1,O   6)    122.6298         0.001917   
     40. D(H   8,O   2,U   1,O   5)   -145.1760         0.001917   
     41. D(H   7,O   3,U   1,O   5)     18.5077         0.001893   
     42. D(H   7,O   3,U   1,O   4)   -165.4225         0.001893   
     43. D(H   7,O   3,U   1,O   2)    -72.2339         0.001893   
     44. D(H   7,O   3,U   1,O   0)    106.6025         0.001893   
     45. D(H  10,O   4,U   1,O   2)    -80.6131         0.001883   
     46. D(H  10,O   4,U   1,O   0)    104.0370         0.001883   
     47. D(H  10,O   4,U   1,O   6)   -170.9196         0.001883   
     48. D(H  10,O   4,U   1,O   5)     36.7535         0.001883   
     49. D(H  10,O   4,U   1,O   3)      7.2793         0.001883   
     50. D(H   9,O   5,U   1,O   4)     98.2411         0.001900   
     51. D(H   9,O   5,U   1,O   3)    127.4822         0.001900   
     52. D(H   9,O   5,U   1,O   2)   -144.2545         0.001900   
     53. D(H   9,O   5,U   1,O   6)    -54.1738         0.001900   
     54. D(H   9,O   5,U   1,O   0)     30.9144         0.001900   
     55. D(H  11,O   6,O   3,H   7)    112.0020         0.001500   
     56. D(H  11,O   6,U   1,O   5)     92.0538         0.001908   
     57. D(H  11,O   6,U   1,O   4)    -84.2342         0.001908   
     58. D(H  11,O   6,U   1,O   2)   -177.2055         0.001908   
     59. D(H  11,O   6,U   1,O   0)      4.1290         0.001908   
    -----------------------------------------------------------------

Number of atoms                         .... 13
Number of degrees of freedom            .... 59

         *************************************************************
         *                GEOMETRY OPTIMIZATION CYCLE   1            *
         *************************************************************
---------------------------------
CARTESIAN COORDINATES (ANGSTROEM)
---------------------------------
  O      7.743575    0.441633    2.785511
  U      5.674730    0.400737    2.873243
  O      3.632858    0.276287    3.117206
  O      5.344225    0.911330    0.896417
  O      5.689383    2.454841    3.141602
  O      5.759442   -1.593303    2.340308
  O      5.942153   -0.039965    4.870721
  H      5.039775    0.317576    0.199288
  H      2.964083    0.946878    2.933736
  H      6.478797   -2.195623    2.567558
  H      5.456942    3.055614    2.421325
  H      6.828477   -0.054514    5.254227
  H      8.321679    1.179110    2.557057

----------------------------
CARTESIAN COORDINATES (A.U.)
----------------------------
  NO LB      ZA    FRAG     MASS         X           Y           Z
   0 O     8.0000    0    15.999   14.633236    0.834565    5.263853
   1 U    92.0000    0   238.029   10.723686    0.757283    5.429642
   2 O     8.0000    0    15.999    6.865107    0.522107    5.890666
   3 O     8.0000    0    15.999   10.099122    1.722164    1.693983
   4 O     8.0000    0    15.999   10.751376    4.638977    5.936767
   5 O     8.0000    0    15.999   10.883768   -3.010906    4.422541
   6 O     8.0000    0    15.999   11.229042   -0.075523    9.204329
   7 H     1.0000    0     1.008    9.523795    0.600132    0.376600
   8 H     1.0000    0     1.008    5.601305    1.789340    5.543958
   9 H     1.0000    0     1.008   12.243152   -4.149126    4.851981
  10 H     1.0000    0     1.008   10.312126    5.774274    4.575641
  11 H     1.0000    0     1.008   12.903951   -0.103017    9.929050
  12 H     1.0000    0     1.008   15.725694    2.228195    4.832137

--------------------------------
INTERNAL COORDINATES (ANGSTROEM)
--------------------------------
 O      0   0   0     0.000000000000     0.00000000     0.00000000
 U      1   0   0     2.071108162474     0.00000000     0.00000000
 O      2   1   0     2.060157035823   175.03680220     0.00000000
 O      2   1   3     2.068279430094    96.56099729   193.56973811
 O      2   1   4     2.071611572208    88.78768974   277.07044534
 O      2   1   5     2.065766530557    88.11860843   172.61342720
 O      2   1   6     2.062923089748    85.16670037    92.36161845
 H      4   2   1     0.964998682723   126.08540034   106.60247603
 H      3   2   7     0.964683124557   128.50564411   122.62979072
 H      6   2   1     0.965351521947   124.89686896    30.91436712
 H      5   2   1     0.966310494996   121.21186686   104.03699374
 H      7   2   1     0.965846135993   120.44084255     4.12896616
 H      1   2   3     0.964503908992   128.59828664   226.22201536

---------------------------
INTERNAL COORDINATES (A.U.)
---------------------------
 O      0   0   0     0.000000000000     0.00000000     0.00000000
 U      1   0   0     3.913827220804     0.00000000     0.00000000
 O      2   1   0     3.893132590577   175.03680220     0.00000000
 O      2   1   3     3.908481691300    96.56099729   193.56973811
 O      2   1   4     3.914778527335    88.78768974   277.07044534
 O      2   1   5     3.903732999373    88.11860843   172.61342720
 O      2   1   6     3.898359674967    85.16670037    92.36161845
 H      4   2   1     1.823583229941   126.08540034   106.60247603
 H      3   2   7     1.822986911429   128.50564411   122.62979072
 H      6   2   1     1.824249999444   124.89686896    30.91436712
 H      5   2   1     1.826062195876   121.21186686   104.03699374
 H      7   2   1     1.825184684533   120.44084255     4.12896616
 H      1   2   3     1.822648243092   128.59828664   226.22201536

---------------------
BASIS SET INFORMATION
---------------------
There are 3 groups of distinct atoms

 Group   1 Type O   : 11s6p2d1f contracted to 6s3p2d1f pattern {611111/411/11/1}
 Group   2 Type U   : 29s20p16d12f contracted to 21s13p10d7f pattern {911111111111111111111/8111111111111/7111111111/6111111}
 Group   3 Type H   : 5s1p contracted to 3s1p pattern {311/1}

Atom   0O    basis set group =>   1
Atom   1U    basis set group =>   2
Atom   2O    basis set group =>   1
Atom   3O    basis set group =>   1
Atom   4O    basis set group =>   1
Atom   5O    basis set group =>   1
Atom   6O    basis set group =>   1
Atom   7H    basis set group =>   3
Atom   8H    basis set group =>   3
Atom   9H    basis set group =>   3
Atom  10H    basis set group =>   3
Atom  11H    basis set group =>   3
Atom  12H    basis set group =>   3

INFORMATION: There is an auxiliary basis set but the global RI flag is NOT set

-------------------------------
AUXILIARY BASIS SET INFORMATION
-------------------------------
There are 3 groups of distinct atoms

 Group   1 Type O   : 12s5p4d2f1g contracted to 12s5p4d2f1g pattern {111111111111/11111/1111/11/1}
 Group   2 Type U   : 33s10p8d6f4g2h1i contracted to 33s10p8d6f4g2h1i pattern {111111111111111111111111111111111/1111111111/11111111/111111/1111/11/1}
 Group   3 Type H   : 5s2p1d contracted to 5s2p1d pattern {11111/11/1}

Atom   0O    basis set group =>   1
Atom   1U    basis set group =>   2
Atom   2O    basis set group =>   1
Atom   3O    basis set group =>   1
Atom   4O    basis set group =>   1
Atom   5O    basis set group =>   1
Atom   6O    basis set group =>   1
Atom   7H    basis set group =>   3
Atom   8H    basis set group =>   3
Atom   9H    basis set group =>   3
Atom  10H    basis set group =>   3
Atom  11H    basis set group =>   3
Atom  12H    basis set group =>   3


           ************************************************************
           *        Program running with 20 parallel MPI-processes    *
           *              working on a common directory               *
           ************************************************************
------------------------------------------------------------------------------
                           ORCA GTO INTEGRAL CALCULATION
------------------------------------------------------------------------------

                         BASIS SET STATISTICS AND STARTUP INFO

 # of primitive gaussian shells          ...  233
 # of primitive gaussian functions       ...  577
 # of contracted shells                  ...  147
 # of contracted basis functions         ...  387
 Highest angular momentum                ...    3
 Maximum contraction depth               ...    9
 Integral package used                   ... LIBINT
 Integral threshhold            Thresh   ...  2.500e-11
 Primitive cut-off              TCut     ...  2.500e-12


------------------------------ INTEGRAL EVALUATION ----------------------------


 * One electron integrals 
 Pre-screening matrix                    ... done
 Shell pair data                         ... done (   0.002 sec)

------------------------------------------------------------------------------
                          ORCA RELATIVISTIC HAMILTONIAN
------------------------------------------------------------------------------

Relativistic Method            ... DKH
Order of DKH treatment         ...   2
Treatment of potential         ... V(e,N)
Eps parameter for DKH          ...   0.00000000010000
Nucleus model                  ... Point Nucleus
Speed of light used            ... 137.03598950000000


            ************************************************
            *        DOUGLAS-KROLL-HESS HAMILTONIAN        *
            *   Programmed by FN according to literature   *
            *        procedures. Special thanks to         *
            *       B.A. Hess, M. Reiher and A. Wolf       *
            *     University Erlangen-Nuernberg/Bonn       *
            ************************************************

Uncontracting the basis (first version)        ... done
Number of contracted basis functions           ...  387
Number of uncontracted basis functions         ...  577
Initializing the DKH file                      ... done
One center approximation for DKH is active
Finding unique atoms                      ... 3 atom types
 ATOMIC NUMBER   8
          ... doing integrals          ... Computing the DKH transformation
          ... Transforming V and pVp to p**2 space
          ... First transformation of V and pVp
          ... Second transformation of Veff
          ... Adding kinetic energy
          ... Back transformation of Veff to r-space
          ... Recontracting the H-matrix
          ... Computing the DKH correction to the H-matrix
          ... adding submatrics to 6 actual atoms
 ATOMIC NUMBER  92
          ... doing integrals          ... Computing the DKH transformation
          ... Transforming V and pVp to p**2 space
          ... First transformation of V and pVp
          ... Second transformation of Veff
          ... Adding kinetic energy
          ... Back transformation of Veff to r-space
          ... Recontracting the H-matrix
          ... Computing the DKH correction to the H-matrix
          ... adding submatrics to 1 actual atoms
 ATOMIC NUMBER   1
          ... doing integrals          ... Computing the DKH transformation
          ... Transforming V and pVp to p**2 space
          ... First transformation of V and pVp
          ... Second transformation of Veff
          ... Adding kinetic energy
          ... Back transformation of Veff to r-space
          ... Recontracting the H-matrix
          ... Computing the DKH correction to the H-matrix
          ... adding submatrics to 6 actual atoms
Storing DKH matrices                           ... done
Getting S**(-1/2)                              ... done
Reading the original H-matrix                  ... done
Adding DKH correction to the H-matrix          ... done
Storing the new modified H-matrix              ... done


           ************************************************************
           *        Program running with 20 parallel MPI-processes    *
           *              working on a common directory               *
           ************************************************************
-------------------------------------------------------------------------------
                                 ORCA SCF
-------------------------------------------------------------------------------

------------
SCF SETTINGS
------------
Hamiltonian:
 Ab initio Hamiltonian  Method          .... Hartree-Fock(GTOs)

Relativistic Settings:
 Scalar relativistic method             .... Douglas-Kroll-Hess
 Order of DKH procedure    Order        ....    2
 Mode of DKH-treatment                  .... V=V(e,N)
 Speed of light used       Velit        ....       137.035989
 Cutoff-constant           Eps          ....            1e-10 


General Settings:
 Integral files         IntName         .... /home/nikolayandreadi_2125/_scratch/MP2/UOH6
 Hartree-Fock type      HFTyp           .... RHF
 Total Charge           Charge          ....    0
 Multiplicity           Mult            ....    1
 Number of Electrons    NEL             ....  146
 Basis Dimension        Dim             ....  387
 Nuclear Repulsion      ENuc            ....   1465.2015050856 Eh

Convergence Acceleration:
 DIIS                   CNVDIIS         .... on
   Start iteration      DIISMaxIt       ....     0
   Startup error        DIISStart       ....  0.200000
   # of expansion vecs  DIISMaxEq       ....     5
   Bias factor          DIISBfac        ....   1.050
   Max. coefficient     DIISMaxC        ....  10.000
 Newton-Raphson         CNVNR           .... off
 SOSCF                  CNVSOSCF        .... off
 Level Shifting         CNVShift        .... on
   Level shift para.    LevelShift      ....    0.2500
   Turn off err/grad.   ShiftErr        ....    0.0000
 Zerner damping         CNVZerner       .... off
 Static damping         CNVDamp         .... on
   Fraction old density DampFac         ....    0.8500
   Max. Damping (<1)    DampMax         ....    0.9800
   Min. Damping (>=0)   DampMin         ....    0.0000
   Turn off err/grad.   DampErr         ....    0.0300
 Fernandez-Rico         CNVRico         .... off

SCF Procedure:
 Maximum # iterations   MaxIter         ....  5000
 SCF integral mode      SCFMode         .... Direct
   Integral package                     .... LIBINT
 Reset frequeny         DirectResetFreq ....    20
 Integral Threshold     Thresh          ....  2.500e-11 Eh
 Primitive CutOff       TCut            ....  2.500e-12 Eh

Convergence Tolerance:
 Convergence Check Mode ConvCheckMode   .... Total+1el-Energy
 Convergence forced     ConvForced      .... 1
 Energy Change          TolE            ....  1.000e-08 Eh
 1-El. energy change                    ....  1.000e-05 Eh
 DIIS Error             TolErr          ....  5.000e-07


Diagonalization of the overlap matrix:
Smallest eigenvalue                        ... 4.298e-04
Time for diagonalization                   ...    0.032 sec
Threshold for overlap eigenvalues          ... 1.000e-08
Number of eigenvalues below threshold      ... 0
Time for construction of square roots      ...    0.025 sec
Total time needed                          ...    0.057 sec

--------------------
INITIAL GUESS: HCORE
--------------------
                      -----------------
                      INTIAL GUESS DONE 
                      -----------------
--------------
SCF ITERATIONS
--------------
ITER       Energy         Delta-E        Max-DP      RMS-DP      [F,P]     Damp
               ***  Starting incremental Fock matrix formation  ***
  0 -21367.4242515684   0.00000000000062.69368435  0.30641482 74.0931779 0.8500
  1 -23349.8477193103-1982.42346774183929.85274159  0.18652955 60.2715391 0.8500
                               ***Turning on DIIS***
  2 -24585.9739995672-1236.12628025696216.63704574  0.11641017 49.4690000 0.8500
  3 -27404.1448982257-2818.17089865851414.92206230  0.10952503 40.6135812 0.8500
  4 -27361.4296095642  42.71528866151512.61324582  0.09280587 34.0749077 0.8500
  5 -27567.5295942080-206.09998464378110.68437085  0.07882046 28.7701655 0.8500
  6 -27696.1145320616-128.584937853568 9.06924775  0.06700126 24.3688386 0.8500
  7 -27581.8918485208 114.222683540749 7.60875464  0.05724197 20.6612723 0.8500
  8 -27843.5413726146-261.649524093827 6.56235630  0.04850943 17.4790966 0.8500
  9 -27941.8636560064 -98.322283391804 5.58354592  0.04118827 14.8155085 0.8500
 10 -28005.3783251909 -63.514669184486 4.74430081  0.03500581 12.5696267 0.8500
 11 -28055.9065725073 -50.528247316375 4.03110293  0.02975675 10.6669488 0.8500
 12 -28098.2879416998 -42.381369192510 3.42588908  0.02529614  9.0522959 0.8500
 13 -28145.2935342655 -47.005592565718 2.91491305  0.02149340  7.6811198 0.8500
 14 -28183.9393001128 -38.645765847217 2.47921746  0.01826492  6.5184892 0.8500
 15 -28214.8485106029 -30.909210490172 2.10762200  0.01552392  5.5319289 0.8500
 16 -28240.7051846567 -25.856674053768 1.79142844  0.01319462  4.6943008 0.8500
 17 -28263.1072748288 -22.402090172123 1.52275688  0.01121426  3.9830507 0.8500
 18 -28282.8026722451 -19.695397416253 1.29454927  0.00953051  3.3791835 0.8500
 19 -28299.7853533936 -16.982681148573 1.10054263  0.00809944  2.8665785 0.8500
               *** Restarting incremental Fock matrix formation ***
                                   *** Resetting DIIS ***
 20 -28224.5176688719  75.267684521754 0.98647795  0.00707942  2.4315000 0.8500
 21 -28290.3407876269 -65.823118755041 0.79538979  0.00588997  2.0062287 0.8500
 22 -28323.4399862405 -33.099198613570 0.68032282  0.00496242  1.6761281 0.8500
 23 -28339.2823887583 -15.842402517796 0.57829457  0.00420810  1.4113501 0.8500
 24 -28348.7146986788  -9.432309920532 0.49074454  0.00357380  1.1937007 0.8500
 25 -28353.7481318853  -5.033433206514 0.41603998  0.00303817  1.0120609 0.8500
 26 -28359.3331035033  -5.584971617976 0.35338611  0.00258299  0.8584522 0.8500
 27 -28365.9242839668  -6.591180463514 0.30082040  0.00219514  0.7280255 0.8500
 28 -28371.7173062037  -5.793022236874 0.25599916  0.00186547  0.6174200 0.8500
 29 -28376.2704140504  -4.553107846681 0.21760451  0.00158539  0.5236407 0.8500
 30 -28379.8820700888  -3.611656038447 0.18483579  0.00134739  0.4441073 0.8500
 31 -28382.9953588204  -3.113288731565 0.15702219  0.00114511  0.3766444 0.8500
 32 -28385.7887531560  -2.793394335615 0.13345388  0.00097316  0.3194227 0.8500
 33 -28388.2279149961  -2.439161840066 0.11343859  0.00082703  0.2708958 0.8500
 34 -28390.2893241942  -2.061409198155 0.09640628  0.00070285  0.2297450 0.8500
 35 -28392.0202215354  -1.730897341156 0.08191308  0.00059732  0.1948472 0.8500
 36 -28393.4944151607  -1.474193625341 0.06959539  0.00050763  0.1652507 0.8500
 37 -28394.7653328782  -1.270917717506 0.05913458  0.00043141  0.1401500 0.8500
 38 -28395.8596716722  -1.094338793941 0.05024874  0.00036663  0.1188627 0.8500
 39 -28396.7949767036  -0.935305031384 0.04269674  0.00031158  0.1008098 0.8500
               *** Restarting incremental Fock matrix formation ***
                                   *** Resetting DIIS ***
 40 -28395.4002341153   1.394742588236 0.03602194  0.00026846  0.0854996 0.8500
 41 -28397.4704598050  -2.070225689709 0.03095496  0.00022575  0.0707359 0.8500
 42 -28398.7006439584  -1.230184153323 0.02638505  0.00019121  0.0591581 0.8500
 43 -28399.2772401057  -0.576596147348 0.02235413  0.00016229  0.0499066 0.8500
 44 -28399.6674111028  -0.390170997089 0.01894020  0.00013783  0.0422928 0.8500
 45 -28399.9110509048  -0.243639801964 0.01604464  0.00011716  0.0359046 0.8500
 46 -28400.2301156646  -0.319064759875 0.01363358  0.00009959  0.0304612 0.8500
 47 -28400.5642307193  -0.334115054688 0.07733152  0.00056421  0.0258338 0.0000
 48 -28402.2633253530  -1.699094633695 0.00053669  0.00000548  0.0007144 0.0000
 49 -28402.2910624974  -0.027737144366 0.00063003  0.00000462  0.0005183 0.0000
 50 -28402.2607981469   0.030264350487 0.00039380  0.00000441  0.0001746 0.0000
 51 -28402.2635466822  -0.002748535349 0.00024531  0.00000292  0.0000995 0.0000
 52 -28402.2641599489  -0.000613266631 0.00009045  0.00000115  0.0000481 0.0000
 53 -28402.2649909701  -0.000831021240 0.00002239  0.00000045  0.0000269 0.0000
 54 -28402.2657153203  -0.000724350157 0.00001309  0.00000021  0.0000118 0.0000
 55 -28402.2655048247   0.000210495527 0.00000415  0.00000008  0.0000054 0.0000
 56 -28402.2657604408  -0.000255616051 0.00000122  0.00000003  0.0000020 0.0000
                            ***DIIS convergence achieved***

               *****************************************************
               *                     SUCCESS                       *
               *           SCF CONVERGED AFTER  57 CYCLES          *
               *****************************************************


----------------
TOTAL SCF ENERGY
----------------

Total Energy       :       -28402.26578443 Eh         -772864.94369 eV

Components:
Nuclear Repulsion  :         1465.20150509 Eh           39870.15991 eV
Electronic Energy  :       -29867.46728951 Eh         -812735.10360 eV
One Electron Energy:       -41469.15325034 Eh        -1128433.02837 eV
Two Electron Energy:        11601.68596083 Eh          315697.92477 eV

Virial components:
Potential Energy   :       -80627.33695278 Eh        -2193981.37834 eV
Kinetic Energy     :        52225.07116835 Eh         1421116.43465 eV
Virial Ratio       :            1.54384351


---------------
SCF CONVERGENCE
---------------

  Last Energy change         ...   -2.3985e-05  Tolerance :   1.0000e-08
  Last MAX-Density change    ...    5.9440e-07  Tolerance :   1.0000e-07
  Last RMS-Density change    ...    1.3573e-08  Tolerance :   5.0000e-09
  Last DIIS Error            ...    8.8070e-07  Tolerance :   5.0000e-07

             **** THE GBW FILE WAS UPDATED (/home/nikolayandreadi_2125/_scratch/MP2/UOH6.gbw) ****
             **** DENSITY FILE WAS UPDATED (/home/nikolayandreadi_2125/_scratch/MP2/UOH6.scfp.tmp) ****
             **** ENERGY FILE WAS UPDATED (/home/nikolayandreadi_2125/_scratch/MP2/UOH6.en.tmp) ****
----------------
ORBITAL ENERGIES
----------------

  NO   OCC          E(Eh)            E(eV) 
   0   2.0000   -4260.705089   -115939.6797 
   1   2.0000    -804.670014    -21896.1843 
   2   2.0000    -675.322776    -18376.4670 
   3   2.0000    -675.322747    -18376.4662 
   4   2.0000    -675.322727    -18376.4657 
   5   2.0000    -206.733712     -5625.5103 
   6   2.0000    -170.112723     -4629.0025 
   7   2.0000    -170.112541     -4628.9976 
   8   2.0000    -170.111940     -4628.9812 
   9   2.0000    -135.541812     -3688.2802 
  10   2.0000    -135.541774     -3688.2792 
  11   2.0000    -135.541549     -3688.2731 
  12   2.0000    -135.541217     -3688.2640 
  13   2.0000    -135.541144     -3688.2620 
  14   2.0000     -54.707773     -1488.6742 
  15   2.0000     -42.463882     -1155.5010 
  16   2.0000     -42.463518     -1155.4911 
  17   2.0000     -42.462339     -1155.4590 
  18   2.0000     -29.220356      -795.1263 
  19   2.0000     -29.220098      -795.1193 
  20   2.0000     -29.219123      -795.0927 
  21   2.0000     -29.219046      -795.0907 
  22   2.0000     -29.218762      -795.0829 
  23   2.0000     -20.578180      -559.9607 
  24   2.0000     -20.577142      -559.9325 
  25   2.0000     -20.576851      -559.9246 
  26   2.0000     -20.573659      -559.8377 
  27   2.0000     -20.572704      -559.8117 
  28   2.0000     -20.571290      -559.7733 
  29   2.0000     -15.439848      -420.1396 
  30   2.0000     -15.439539      -420.1312 
  31   2.0000     -15.439433      -420.1283 
  32   2.0000     -15.438683      -420.1079 
  33   2.0000     -15.438547      -420.1042 
  34   2.0000     -15.437551      -420.0771 
  35   2.0000     -15.436954      -420.0609 
  36   2.0000     -12.992785      -353.5516 
  37   2.0000      -9.061942      -246.5880 
  38   2.0000      -9.061470      -246.5751 
  39   2.0000      -9.061074      -246.5643 
  40   2.0000      -4.505938      -122.6128 
  41   2.0000      -4.505484      -122.6004 
  42   2.0000      -4.501599      -122.4947 
  43   2.0000      -4.501293      -122.4864 
  44   2.0000      -4.500429      -122.4629 
  45   2.0000      -2.382694       -64.8364 
  46   2.0000      -1.434915       -39.0460 
  47   2.0000      -1.426880       -38.8274 
  48   2.0000      -1.421355       -38.6770 
  49   2.0000      -1.323782       -36.0219 
  50   2.0000      -1.323143       -36.0046 
  51   2.0000      -1.314196       -35.7611 
  52   2.0000      -1.172700       -31.9108 
  53   2.0000      -1.170053       -31.8388 
  54   2.0000      -1.164301       -31.6822 
  55   2.0000      -0.713035       -19.4027 
  56   2.0000      -0.709668       -19.3111 
  57   2.0000      -0.668309       -18.1856 
  58   2.0000      -0.652381       -17.7522 
  59   2.0000      -0.646126       -17.5820 
  60   2.0000      -0.640797       -17.4370 
  61   2.0000      -0.578896       -15.7526 
  62   2.0000      -0.560103       -15.2412 
  63   2.0000      -0.549586       -14.9550 
  64   2.0000      -0.536666       -14.6034 
  65   2.0000      -0.520697       -14.1689 
  66   2.0000      -0.519924       -14.1479 
  67   2.0000      -0.512175       -13.9370 
  68   2.0000      -0.496288       -13.5047 
  69   2.0000      -0.494139       -13.4462 
  70   2.0000      -0.488059       -13.2808 
  71   2.0000      -0.474867       -12.9218 
  72   2.0000      -0.465832       -12.6759 
  73   0.0000       0.027047         0.7360 
  74   0.0000       0.045194         1.2298 
  75   0.0000       0.059606         1.6220 
  76   0.0000       0.060628         1.6498 
  77   0.0000       0.061781         1.6811 
  78   0.0000       0.074012         2.0140 
  79   0.0000       0.077602         2.1117 
  80   0.0000       0.082557         2.2465 
  81   0.0000       0.125485         3.4146 
  82   0.0000       0.135134         3.6772 
  83   0.0000       0.138044         3.7564 
  84   0.0000       0.144080         3.9206 
  85   0.0000       0.146670         3.9911 
  86   0.0000       0.153330         4.1723 
  87   0.0000       0.166648         4.5347 
  88   0.0000       0.171579         4.6689 
  89   0.0000       0.180434         4.9099 
  90   0.0000       0.188624         5.1327 
  91   0.0000       0.191612         5.2140 
  92   0.0000       0.206403         5.6165 
  93   0.0000       0.240809         6.5527 
  94   0.0000       0.248240         6.7550 
  95   0.0000       0.268774         7.3137 
  96   0.0000       0.277041         7.5387 
  97   0.0000       0.287395         7.8204 
  98   0.0000       0.302489         8.2311 
  99   0.0000       0.382568        10.4102 
 100   0.0000       0.422512        11.4971 
 101   0.0000       0.464365        12.6360 
 102   0.0000       0.472199        12.8492 
 103   0.0000       0.491281        13.3684 
 104   0.0000       0.497439        13.5360 
 105   0.0000       0.508550        13.8384 
 106   0.0000       0.556821        15.1519 
 107   0.0000       0.567489        15.4422 
 108   0.0000       0.568349        15.4656 
 109   0.0000       0.586786        15.9673 
 110   0.0000       0.603029        16.4092 
 111   0.0000       0.618259        16.8237 
 112   0.0000       0.626234        17.0407 
 113   0.0000       0.642692        17.4885 
 114   0.0000       0.646539        17.5932 
 115   0.0000       0.662090        18.0164 
 116   0.0000       0.669207        18.2100 
 117   0.0000       0.692558        18.8455 
 118   0.0000       0.697036        18.9673 
 119   0.0000       0.700516        19.0620 
 120   0.0000       0.715748        19.4765 
 121   0.0000       0.717675        19.5289 
 122   0.0000       0.730301        19.8725 
 123   0.0000       0.736265        20.0348 
 124   0.0000       0.744475        20.2582 
 125   0.0000       0.754078        20.5195 
 126   0.0000       0.759457        20.6659 
 127   0.0000       0.770786        20.9741 
 128   0.0000       0.776069        21.1179 
 129   0.0000       0.779338        21.2069 
 130   0.0000       0.791789        21.5457 
 131   0.0000       0.794022        21.6064 
 132   0.0000       0.809816        22.0362 
 133   0.0000       0.876362        23.8470 
 134   0.0000       0.898510        24.4497 
 135   0.0000       0.912726        24.8365 
 136   0.0000       0.916047        24.9269 
 137   0.0000       0.936319        25.4785 
 138   0.0000       0.953858        25.9558 
 139   0.0000       0.968737        26.3607 
 140   0.0000       0.996549        27.1175 
 141   0.0000       1.023621        27.8541 
 142   0.0000       1.086816        29.5738 
 143   0.0000       1.094993        29.7963 
 144   0.0000       1.108945        30.1759 
 145   0.0000       1.164740        31.6942 
 146   0.0000       1.210369        32.9358 
 147   0.0000       1.288889        35.0725 
 148   0.0000       1.300127        35.3783 
 149   0.0000       1.326628        36.0994 
 150   0.0000       1.350268        36.7427 
 151   0.0000       1.354836        36.8670 
 152   0.0000       1.507547        41.0224 
 153   0.0000       1.556737        42.3610 
 154   0.0000       1.565200        42.5913 
 155   0.0000       1.580615        43.0107 
 156   0.0000       1.593176        43.3525 
 157   0.0000       1.596971        43.4558 
 158   0.0000       1.615296        43.9544 
 159   0.0000       1.656267        45.0693 
 160   0.0000       1.695209        46.1290 
 161   0.0000       1.727340        47.0033 
 162   0.0000       1.757632        47.8276 
 163   0.0000       1.795386        48.8549 
 164   0.0000       1.814035        49.3624 
 165   0.0000       1.832291        49.8592 
 166   0.0000       1.837720        50.0069 
 167   0.0000       1.849534        50.3284 
 168   0.0000       1.861508        50.6542 
 169   0.0000       1.873271        50.9743 
 170   0.0000       1.899231        51.6807 
 171   0.0000       1.910215        51.9796 
 172   0.0000       1.929308        52.4991 
 173   0.0000       1.953360        53.1536 
 174   0.0000       1.964428        53.4548 
 175   0.0000       1.980703        53.8977 
 176   0.0000       2.005961        54.5850 
 177   0.0000       2.030124        55.2425 
 178   0.0000       2.043698        55.6118 
 179   0.0000       2.056372        55.9567 
 180   0.0000       2.072545        56.3968 
 181   0.0000       2.085747        56.7561 
 182   0.0000       2.147298        58.4309 
 183   0.0000       2.186912        59.5089 
 184   0.0000       2.207428        60.0672 
 185   0.0000       2.226329        60.5815 
 186   0.0000       2.239864        60.9498 
 187   0.0000       2.253286        61.3150 
 188   0.0000       2.278297        61.9956 
 189   0.0000       2.297266        62.5118 
 190   0.0000       2.325644        63.2840 
 191   0.0000       2.338195        63.6255 
 192   0.0000       2.387065        64.9553 
 193   0.0000       2.407771        65.5188 
 194   0.0000       2.418076        65.7992 
 195   0.0000       2.428378        66.0795 
 196   0.0000       2.462065        66.9962 
 197   0.0000       2.487468        67.6875 
 198   0.0000       2.503255        68.1170 
 199   0.0000       2.534800        68.9754 
 200   0.0000       2.558172        69.6114 
 201   0.0000       2.578680        70.1694 
 202   0.0000       2.632153        71.6245 
 203   0.0000       2.640074        71.8401 
 204   0.0000       2.658568        72.3433 
 205   0.0000       2.682814        73.0031 
 206   0.0000       2.709573        73.7312 
 207   0.0000       2.725181        74.1560 
 208   0.0000       2.758744        75.0692 
 209   0.0000       2.809188        76.4419 
 210   0.0000       2.830956        77.0342 
 211   0.0000       2.861981        77.8785 
 212   0.0000       3.041102        82.7526 
 213   0.0000       3.065414        83.4141 
 214   0.0000       3.078355        83.7663 
 215   0.0000       3.087941        84.0271 
 216   0.0000       3.099980        84.3547 
 217   0.0000       3.103551        84.4519 
 218   0.0000       3.126934        85.0882 
 219   0.0000       3.133613        85.2700 
 220   0.0000       3.145799        85.6016 
 221   0.0000       3.160149        85.9920 
 222   0.0000       3.173918        86.3667 
 223   0.0000       3.196790        86.9891 
 224   0.0000       3.245178        88.3058 
 225   0.0000       3.302048        89.8533 
 226   0.0000       3.332529        90.6827 
 227   0.0000       3.375917        91.8634 
 228   0.0000       3.385202        92.1160 
 229   0.0000       3.399595        92.5077 
 230   0.0000       3.492380        95.0325 
 231   0.0000       3.773231       102.6748 
 232   0.0000       3.829150       104.1965 
 233   0.0000       3.851355       104.8007 
 234   0.0000       3.861506       105.0769 
 235   0.0000       3.876825       105.4938 
 236   0.0000       3.896160       106.0199 
 237   0.0000       4.015312       109.2622 
 238   0.0000       4.052457       110.2730 
 239   0.0000       4.080212       111.0282 
 240   0.0000       4.135903       112.5436 
 241   0.0000       4.162333       113.2629 
 242   0.0000       4.199805       114.2825 
 243   0.0000       4.228696       115.0687 
 244   0.0000       4.249963       115.6474 
 245   0.0000       4.260522       115.9347 
 246   0.0000       4.373847       119.0184 
 247   0.0000       4.388313       119.4121 
 248   0.0000       4.433003       120.6281 
 249   0.0000       5.532692       150.5522 
 250   0.0000       5.548684       150.9874 
 251   0.0000       5.550621       151.0401 
 252   0.0000       5.553009       151.1051 
 253   0.0000       5.558577       151.2566 
 254   0.0000       5.562115       151.3528 
 255   0.0000       5.563990       151.4039 
 256   0.0000       5.570465       151.5801 
 257   0.0000       5.575865       151.7270 
 258   0.0000       5.578444       151.7972 
 259   0.0000       5.584378       151.9587 
 260   0.0000       5.588402       152.0682 
 261   0.0000       5.597051       152.3035 
 262   0.0000       5.607891       152.5985 
 263   0.0000       5.618933       152.8989 
 264   0.0000       5.631596       153.2435 
 265   0.0000       5.646758       153.6561 
 266   0.0000       5.664799       154.1470 
 267   0.0000       5.701262       155.1392 
 268   0.0000       5.707637       155.3127 
 269   0.0000       5.728238       155.8733 
 270   0.0000       5.739592       156.1822 
 271   0.0000       5.755217       156.6074 
 272   0.0000       5.774588       157.1345 
 273   0.0000       5.834468       158.7639 
 274   0.0000       5.847049       159.1063 
 275   0.0000       5.848952       159.1581 
 276   0.0000       5.851121       159.2171 
 277   0.0000       5.860225       159.4648 
 278   0.0000       5.885275       160.1465 
 279   0.0000       5.895843       160.4341 
 280   0.0000       5.919656       161.0820 
 281   0.0000       5.928496       161.3226 
 282   0.0000       5.936652       161.5445 
 283   0.0000       5.959357       162.1623 
 284   0.0000       5.979442       162.7089 
 285   0.0000       6.634997       180.5475 
 286   0.0000       6.654783       181.0858 
 287   0.0000       6.671753       181.5476 
 288   0.0000       6.689865       182.0405 
 289   0.0000       6.697480       182.2477 
 290   0.0000       6.713513       182.6840 
 291   0.0000       6.779342       184.4753 
 292   0.0000       6.795341       184.9106 
 293   0.0000       6.824309       185.6989 
 294   0.0000       6.838013       186.0718 
 295   0.0000       6.841329       186.1620 
 296   0.0000       6.864670       186.7972 
 297   0.0000       6.883690       187.3147 
 298   0.0000       6.926416       188.4774 
 299   0.0000       6.954554       189.2430 
 300   0.0000       6.969785       189.6575 
 301   0.0000       6.993148       190.2932 
 302   0.0000       7.004807       190.6105 
 303   0.0000       7.032214       191.3563 
 304   0.0000       7.040608       191.5847 
 305   0.0000       7.058143       192.0618 
 306   0.0000       7.105784       193.3582 
 307   0.0000       7.124478       193.8669 
 308   0.0000       7.159885       194.8304 
 309   0.0000       7.169579       195.0942 
 310   0.0000       7.236123       196.9049 
 311   0.0000       7.247443       197.2129 
 312   0.0000       7.360427       200.2874 
 313   0.0000       7.368605       200.5099 
 314   0.0000       7.380728       200.8398 
 315   0.0000       7.464019       203.1063 
 316   0.0000       7.490370       203.8233 
 317   0.0000       7.514185       204.4714 
 318   0.0000       7.517721       204.5676 
 319   0.0000       7.545367       205.3199 
 320   0.0000       7.566589       205.8974 
 321   0.0000       8.587199       233.6696 
 322   0.0000       8.615836       234.4488 
 323   0.0000       8.629782       234.8283 
 324   0.0000       9.025751       245.6032 
 325   0.0000       9.039013       245.9640 
 326   0.0000       9.053802       246.3665 
 327   0.0000       9.299159       253.0430 
 328   0.0000       9.310783       253.3593 
 329   0.0000       9.795942       266.5611 
 330   0.0000      13.559238       368.9656 
 331   0.0000      13.640488       371.1765 
 332   0.0000      13.654960       371.5704 
 333   0.0000      13.679874       372.2483 
 334   0.0000      13.818175       376.0117 
 335   0.0000      13.829678       376.3247 
 336   0.0000      13.853972       376.9857 
 337   0.0000      15.345456       417.5711 
 338   0.0000      15.352936       417.7746 
 339   0.0000      15.357325       417.8941 
 340   0.0000      15.399338       419.0373 
 341   0.0000      15.446944       420.3327 
 342   0.0000      15.490327       421.5132 
 343   0.0000      44.188413      1202.4278 
 344   0.0000      46.681229      1270.2608 
 345   0.0000      46.687715      1270.4373 
 346   0.0000      46.695284      1270.6433 
 347   0.0000      46.824228      1274.1520 
 348   0.0000      46.833679      1274.4092 
 349   0.0000      47.598265      1295.2146 
 350   0.0000      47.623848      1295.9108 
 351   0.0000      47.631581      1296.1212 
 352   0.0000      53.108987      1445.1690 
 353   0.0000      53.151036      1446.3132 
 354   0.0000      53.158629      1446.5198 
 355   0.0000      53.170581      1446.8451 
 356   0.0000      53.243252      1448.8225 
 357   0.0000      53.249648      1448.9966 
 358   0.0000      53.263561      1449.3752 
 359   0.0000      78.963407      2148.7035 
 360   0.0000      78.971088      2148.9125 
 361   0.0000      78.977105      2149.0763 
 362   0.0000      79.035806      2150.6736 
 363   0.0000      79.084503      2151.9987 
 364   0.0000      79.126011      2153.1282 
 365   0.0000     205.054164      5579.8075 
 366   0.0000     235.895378      6419.0396 
 367   0.0000     235.898989      6419.1378 
 368   0.0000     235.902900      6419.2443 
 369   0.0000     235.976366      6421.2434 
 370   0.0000     235.981702      6421.3886 
 371   0.0000     264.449830      7196.0457 
 372   0.0000     264.467151      7196.5170 
 373   0.0000     264.472659      7196.6669 
 374   0.0000     792.464505     21564.0555 
 375   0.0000    1085.720759     29543.9638 
 376   0.0000    1085.732606     29544.2862 
 377   0.0000    1085.736130     29544.3821 
 378   0.0000    2430.699078     66142.6845 
 379   0.0000    3783.422685    102952.1652 
 380   0.0000    3783.430887    102952.3884 
 381   0.0000    3783.433241    102952.4525 
 382   0.0000    6095.664854    165871.4734 
 383   0.0000   13027.282667    354490.3833 
 384   0.0000   24922.195749    678167.4237 
 385   0.0000   43992.418472   1197094.5657 
 386   0.0000   84401.532136   2296682.4505 

                    ********************************
                    * MULLIKEN POPULATION ANALYSIS *
                    ********************************

-----------------------
MULLIKEN ATOMIC CHARGES
-----------------------
   0 O :   -0.912883
   1 U :    3.113602
   2 O :   -0.888793
   3 O :   -0.905411
   4 O :   -0.885373
   5 O :   -0.883286
   6 O :   -0.866198
   7 H :    0.375201
   8 H :    0.363930
   9 H :    0.370062
  10 H :    0.375636
  11 H :    0.372720
  12 H :    0.370793
Sum of atomic charges:    0.0000000

--------------------------------
MULLIKEN REDUCED ORBITAL CHARGES
--------------------------------
  0 O s       :     3.900749  s :     3.900749
      pz      :     1.818879  p :     4.995751
      px      :     1.573038
      py      :     1.603834
      dz2     :     0.002023  d :     0.014965
      dxz     :     0.002052
      dyz     :     0.001682
      dx2y2   :     0.004023
      dxy     :     0.005185
      f0      :     0.000204  f :     0.001418
      f+1     :     0.000224
      f-1     :     0.000144
      f+2     :     0.000063
      f-2     :     0.000176
      f+3     :     0.000424
      f-3     :     0.000182
  1 U s       :    12.103311  s :    12.103311
      pz      :     9.979825  p :    29.911346
      px      :     9.961909
      py      :     9.969612
      dz2     :     6.272414  d :    31.293169
      dxz     :     6.253242
      dyz     :     6.231677
      dx2y2   :     6.289273
      dxy     :     6.246563
      f0      :     2.329151  f :    15.578572
      f+1     :     2.235134
      f-1     :     2.248094
      f+2     :     2.165613
      f-2     :     2.039593
      f+3     :     2.288758
      f-3     :     2.272231
  2 O s       :     3.905815  s :     3.905815
      pz      :     1.818873  p :     4.965863
      px      :     1.515059
      py      :     1.631931
      dz2     :     0.002307  d :     0.015662
      dxz     :     0.002382
      dyz     :     0.001704
      dx2y2   :     0.002657
      dxy     :     0.006611
      f0      :     0.000183  f :     0.001454
      f+1     :     0.000270
      f-1     :     0.000141
      f+2     :     0.000083
      f-2     :     0.000115
      f+3     :     0.000305
      f-3     :     0.000356
  3 O s       :     3.898692  s :     3.898692
      pz      :     1.514497  p :     4.989769
      px      :     1.790897
      py      :     1.684374
      dz2     :     0.001956  d :     0.015560
      dxz     :     0.001970
      dyz     :     0.007085
      dx2y2   :     0.002099
      dxy     :     0.002451
      f0      :     0.000224  f :     0.001389
      f+1     :     0.000282
      f-1     :     0.000417
      f+2     :     0.000136
      f-2     :     0.000250
      f+3     :     0.000065
      f-3     :     0.000016
  4 O s       :     3.907164  s :     3.907164
      pz      :     1.609946  p :     4.959564
      px      :     1.797768
      py      :     1.551850
      dz2     :     0.004267  d :     0.017353
      dxz     :     0.002385
      dyz     :     0.006599
      dx2y2   :     0.001921
      dxy     :     0.002181
      f0      :     0.000029  f :     0.001293
      f+1     :     0.000062
      f-1     :     0.000318
      f+2     :     0.000307
      f-2     :     0.000153
      f+3     :     0.000201
      f-3     :     0.000222
  5 O s       :     3.899958  s :     3.899958
      pz      :     1.792838  p :     4.965573
      px      :     1.613015
      py      :     1.559720
      dz2     :     0.002337  d :     0.016380
      dxz     :     0.002323
      dyz     :     0.003082
      dx2y2   :     0.003275
      dxy     :     0.005363
      f0      :     0.000178  f :     0.001375
      f+1     :     0.000123
      f-1     :     0.000186
      f+2     :     0.000097
      f-2     :     0.000162
      f+3     :     0.000232
      f-3     :     0.000398
  6 O s       :     3.906725  s :     3.906725
      pz      :     1.622450  p :     4.940026
      px      :     1.498808
      py      :     1.818768
      dz2     :     0.005638  d :     0.018139
      dxz     :     0.003001
      dyz     :     0.002670
      dx2y2   :     0.006043
      dxy     :     0.000787
      f0      :     0.000312  f :     0.001308
      f+1     :     0.000057
      f-1     :     0.000135
      f+2     :     0.000393
      f-2     :     0.000055
      f+3     :     0.000312
      f-3     :     0.000045
  7 H s       :     0.576928  s :     0.576928
      pz      :     0.017883  p :     0.047870
      px      :     0.014756
      py      :     0.015231
  8 H s       :     0.587676  s :     0.587676
      pz      :     0.014428  p :     0.048395
      px      :     0.018043
      py      :     0.015923
  9 H s       :     0.581975  s :     0.581975
      pz      :     0.014035  p :     0.047963
      px      :     0.016811
      py      :     0.017116
 10 H s       :     0.576905  s :     0.576905
      pz      :     0.016437  p :     0.047459
      px      :     0.014418
      py      :     0.016605
 11 H s       :     0.579532  s :     0.579532
      pz      :     0.014921  p :     0.047748
      px      :     0.018497
      py      :     0.014329
 12 H s       :     0.581190  s :     0.581190
      pz      :     0.014493  p :     0.048017
      px      :     0.016805
      py      :     0.016718


                     *******************************
                     * LOEWDIN POPULATION ANALYSIS *
                     *******************************

----------------------
LOEWDIN ATOMIC CHARGES
----------------------
   0 O :   -0.244071
   1 U :    0.221525
   2 O :   -0.221194
   3 O :   -0.240618
   4 O :   -0.235489
   5 O :   -0.227878
   6 O :   -0.219005
   7 H :    0.195531
   8 H :    0.192104
   9 H :    0.195052
  10 H :    0.195769
  11 H :    0.195757
  12 H :    0.192517

-------------------------------
LOEWDIN REDUCED ORBITAL CHARGES
-------------------------------
  0 O s       :     3.434486  s :     3.434486
      pz      :     1.689358  p :     4.769672
      px      :     1.539559
      py      :     1.540755
      dz2     :     0.007493  d :     0.037343
      dxz     :     0.003060
      dyz     :     0.001668
      dx2y2   :     0.016664
      dxy     :     0.008458
      f0      :     0.000215  f :     0.002570
      f+1     :     0.000483
      f-1     :     0.000166
      f+2     :     0.000122
      f-2     :     0.000218
      f+3     :     0.001056
      f-3     :     0.000310
  1 U s       :    12.125542  s :    12.125542
      pz      :    10.084241  p :    30.245355
      px      :    10.081314
      py      :    10.079799
      dz2     :     6.623546  d :    32.436553
      dxz     :     6.387473
      dyz     :     6.401521
      dx2y2   :     6.667220
      dxy     :     6.356793
      f0      :     2.610846  f :    16.971026
      f+1     :     2.435023
      f-1     :     2.468111
      f+2     :     2.347484
      f-2     :     2.072371
      f+3     :     2.532301
      f-3     :     2.504890
  2 O s       :     3.433724  s :     3.433724
      pz      :     1.692081  p :     4.745886
      px      :     1.490982
      py      :     1.562823
      dz2     :     0.007726  d :     0.038928
      dxz     :     0.004002
      dyz     :     0.001424
      dx2y2   :     0.015381
      dxy     :     0.010394
      f0      :     0.000199  f :     0.002656
      f+1     :     0.000545
      f-1     :     0.000177
      f+2     :     0.000160
      f-2     :     0.000140
      f+3     :     0.000828
      f-3     :     0.000607
  3 O s       :     3.435414  s :     3.435414
      pz      :     1.486602  p :     4.764967
      px      :     1.674153
      py      :     1.604212
      dz2     :     0.016140  d :     0.037690
      dxz     :     0.004904
      dyz     :     0.012331
      dx2y2   :     0.001958
      dxy     :     0.002357
      f0      :     0.000631  f :     0.002546
      f+1     :     0.000403
      f-1     :     0.000846
      f+2     :     0.000180
      f-2     :     0.000400
      f+3     :     0.000081
      f-3     :     0.000007
  4 O s       :     3.441417  s :     3.441417
      pz      :     1.551731  p :     4.753462
      px      :     1.679685
      py      :     1.522046
      dz2     :     0.007588  d :     0.038166
      dxz     :     0.002082
      dyz     :     0.010133
      dx2y2   :     0.015382
      dxy     :     0.002980
      f0      :     0.000096  f :     0.002443
      f+1     :     0.000088
      f-1     :     0.000716
      f+2     :     0.000474
      f-2     :     0.000215
      f+3     :     0.000225
      f-3     :     0.000628
  5 O s       :     3.437141  s :     3.437141
      pz      :     1.680721  p :     4.749852
      px      :     1.543806
      py      :     1.525325
      dz2     :     0.006021  d :     0.038331
      dxz     :     0.002254
      dyz     :     0.006814
      dx2y2   :     0.014229
      dxy     :     0.009013
      f0      :     0.000282  f :     0.002554
      f+1     :     0.000145
      f-1     :     0.000371
      f+2     :     0.000286
      f-2     :     0.000203
      f+3     :     0.000380
      f-3     :     0.000888
  6 O s       :     3.440995  s :     3.440995
      pz      :     1.588388  p :     4.735802
      px      :     1.453902
      py      :     1.693513
      dz2     :     0.019629  d :     0.039696
      dxz     :     0.006095
      dyz     :     0.005354
      dx2y2   :     0.008201
      dxy     :     0.000417
      f0      :     0.000930  f :     0.002512
      f+1     :     0.000190
      f-1     :     0.000365
      f+2     :     0.000550
      f-2     :     0.000039
      f+3     :     0.000437
      f-3     :     0.000003
  7 H s       :     0.638030  s :     0.638030
      pz      :     0.062081  p :     0.166439
      px      :     0.045151
      py      :     0.059207
  8 H s       :     0.641526  s :     0.641526
      pz      :     0.042583  p :     0.166371
      px      :     0.059815
      py      :     0.063972
  9 H s       :     0.638748  s :     0.638748
      pz      :     0.043173  p :     0.166200
      px      :     0.067076
      py      :     0.055951
 10 H s       :     0.638070  s :     0.638070
      pz      :     0.067232  p :     0.166161
      px      :     0.043223
      py      :     0.055706
 11 H s       :     0.638212  s :     0.638212
      pz      :     0.045374  p :     0.166030
      px      :     0.080195
      py      :     0.040461
 12 H s       :     0.640661  s :     0.640661
      pz      :     0.043673  p :     0.166822
      px      :     0.054510
      py      :     0.068639


                      *****************************
                      * MAYER POPULATION ANALYSIS *
                      *****************************

  NA   - Mulliken gross atomic population
  ZA   - Total nuclear charge
  QA   - Mulliken gross atomic charge
  VA   - Mayer's total valence
  BVA  - Mayer's bonded valence
  FA   - Mayer's free valence

  ATOM       NA         ZA         QA         VA         BVA        FA
  0 O      8.9129     8.0000    -0.9129     1.4825     1.4825    -0.0000
  1 U     88.8864    92.0000     3.1136     3.9044     3.9044    -0.0000
  2 O      8.8888     8.0000    -0.8888     1.5183     1.5183    -0.0000
  3 O      8.9054     8.0000    -0.9054     1.4983     1.4983     0.0000
  4 O      8.8854     8.0000    -0.8854     1.5194     1.5194    -0.0000
  5 O      8.8833     8.0000    -0.8833     1.5253     1.5253     0.0000
  6 O      8.8662     8.0000    -0.8662     1.5569     1.5569    -0.0000
  7 H      0.6248     1.0000     0.3752     0.8790     0.8790     0.0000
  8 H      0.6361     1.0000     0.3639     0.8882     0.8882    -0.0000
  9 H      0.6299     1.0000     0.3701     0.8823     0.8823    -0.0000
 10 H      0.6244     1.0000     0.3756     0.8773     0.8773    -0.0000
 11 H      0.6273     1.0000     0.3727     0.8811     0.8811    -0.0000
 12 H      0.6292     1.0000     0.3708     0.8830     0.8830    -0.0000

  Mayer bond orders larger than 0.1
B(  0-O ,  1-U ) :   0.6035 B(  0-O , 12-H ) :   0.8591 B(  1-U ,  2-O ) :   0.6074 
B(  1-U ,  3-O ) :   0.6178 B(  1-U ,  4-O ) :   0.6407 B(  1-U ,  5-O ) :   0.6298 
B(  1-U ,  6-O ) :   0.6526 B(  2-O ,  8-H ) :   0.8615 B(  3-O ,  7-H ) :   0.8576 
B(  4-O , 10-H ) :   0.8571 B(  5-O ,  9-H ) :   0.8589 B(  6-O , 11-H ) :   0.8583 


-------
TIMINGS
-------

Total SCF time: 0 days 0 hours 3 min 31 sec 

Total time                  ....     211.829 sec
Sum of individual times     ....     210.872 sec  ( 99.5%)

Fock matrix formation       ....     203.583 sec  ( 96.1%)
Diagonalization             ....       4.235 sec  (  2.0%)
Density matrix formation    ....       0.130 sec  (  0.1%)
Population analysis         ....       0.103 sec  (  0.0%)
Initial guess               ....       0.068 sec  (  0.0%)
Orbital Transformation      ....       0.000 sec  (  0.0%)
Orbital Orthonormalization  ....       0.000 sec  (  0.0%)
DIIS solution               ....       2.753 sec  (  1.3%)


           ************************************************************
           *        Program running with 20 parallel MPI-processes    *
           *              working on a common directory               *
           ************************************************************

------------------------------------------------------------------------------
                                ORCA  MP2 
------------------------------------------------------------------------------

Freezing NCore=80 chemical core electrons
MP2 will be done in the AO integral direct mode
The Q1-step will be done using symmetric double matrices
Dimension of the basis                    ...  387
Memory devoted for MP2                    ... 31500 MB   
Memory needed for all in one shot         ...  444 MB
Number of MOs that can be treated together...  141      
MP2 density construction                  ... relaxed
The MP2 gradient is requested => amplitudes will be stored on disk
Total number of MOs              ...   33
Number of MOs treated per batch  ...    2 
Number of batches necessary      ...    1 
OPERATORS   0/  0 PASS   0
-----------------------------------------------
 MP2 CORRELATION ENERGY   :     -2.485442384 Eh
-----------------------------------------------


---------------------
MP2 DENSITY FORMATION
---------------------

Completing the external part of the density      ... done
Storing the unrelaxed density                    ... done

Calculating G(D)                                 ... done
Completing the Lagrangian                        ... done
Solving the Z-vector equations                   ... 

------------------------------------------------------------------------------
                           ORCA CP-SCF CALCULATION
------------------------------------------------------------------------------

Input orbitals are from        ... /home/nikolayandreadi_2125/_scratch/MP2/UOH6.gbw
Input Perturbation             ... /home/nikolayandreadi_2125/_scratch/MP2/UOH6.pin.tmp
Wavefunction output            ... /home/nikolayandreadi_2125/_scratch/MP2/UOH6.pout.tmp
Perturbation mode              ... Real perturbation
Solver                         ... DIIS
   MaxDIIS                     ... 20
   Levelshift                  ...    3.000e-01 Eh
Max. number of iterations      ... 5000
Convergence tolerance          ... 1.000e-08
Integral handling              ... Direct
Number of perturbations        ... 1
Number of operators            ... 1
Orbital ranges used for CP-SCF:
 Operator 0:  Orbitals   0... 72  to  73...386
Variables per vector in CP-SCF ... 22922
Number of vectors sought       ... 1

Solving the CP-SCF equations by a DIIS algorithm

-----------------
CP-SCF ITERATIONS
-----------------
  Iteration   0: MaxR=  1.182219134
  Iteration   1: MaxR=  1.035485582
  Iteration   2: MaxR=  0.148213659
  Iteration   3: MaxR=  0.086040740
  Iteration   4: MaxR=  0.029852114
  Iteration   5: MaxR=  0.015847542
  Iteration   6: MaxR=  0.006795670
  Iteration   7: MaxR=  0.002353413
  Iteration   8: MaxR=  0.000853306
  Iteration   9: MaxR=  0.000327901
  Iteration  10: MaxR=  0.000129169
  Iteration  11: MaxR=  0.000065406
  Iteration  12: MaxR=  0.000029785
  Iteration  13: MaxR=  0.000012108
  Iteration  14: MaxR=  0.000005925
  Iteration  15: MaxR=  0.000002735
  Iteration  16: MaxR=  0.000001065
  Iteration  17: MaxR=  0.000000339
  Iteration  18: MaxR=  0.000000157
  Iteration  19: MaxR=  0.000000074
  Iteration  20: MaxR=  0.000000031
  Iteration  21: MaxR=  0.000000015
  Iteration  22: MaxR=  0.000000007
                              *** THE CP-SCF HAS CONVERGED *** 
                                                 ... done
Finalizing the relaxed density                   ... done
Transforming P to the AO basis                   ... done
Storing the relaxed density                      ... done

------------------------------------
ENERGY WEIGHTED DENSITY FINALIZATION
------------------------------------

Gathering the parts of the W-matrix              ...                                                      done
Forming the Z-density                            ... done
Transforming Z to the AO basis                   ... done
Calculating G(Z)                                 ... done
Finalizing the W-matrix                          ...                                                      done
Transforming W to the AO basis and storing       ... done

                *********************************************
                * UNRELAXED MP2 DENSITY POPULATION ANALYSIS *
                *********************************************

------------------------------------------------------------------------------
                           ORCA POPULATION ANALYSIS
------------------------------------------------------------------------------
Input electron density              ... /home/nikolayandreadi_2125/_scratch/MP2/UOH6.pmp2ur
BaseName (.gbw .S,...)              ... /home/nikolayandreadi_2125/_scratch/MP2/UOH6

                    ********************************
                    * MULLIKEN POPULATION ANALYSIS *
                    ********************************

-----------------------
MULLIKEN ATOMIC CHARGES
-----------------------
   0 O :   -0.878336
   1 U :    2.909226
   2 O :   -0.854180
   3 O :   -0.870668
   4 O :   -0.849929
   5 O :   -0.848141
   6 O :   -0.830733
   7 H :    0.374312
   8 H :    0.363051
   9 H :    0.369098
  10 H :    0.374699
  11 H :    0.371757
  12 H :    0.369843
Sum of atomic charges:    0.0000000

--------------------------------
MULLIKEN REDUCED ORBITAL CHARGES
--------------------------------
  0 O s       :     3.893046  s :     3.893046
      pz      :     1.796771  p :     4.935037
      px      :     1.551261
      py      :     1.587006
      dz2     :     0.008045  d :     0.046180
      dxz     :     0.008576
      dyz     :     0.007541
      dx2y2   :     0.010332
      dxy     :     0.011686
      f0      :     0.000567  f :     0.004073
      f+1     :     0.000601
      f-1     :     0.000500
      f+2     :     0.000447
      f-2     :     0.000550
      f+3     :     0.000827
      f-3     :     0.000581
  1 U s       :    12.102076  s :    12.102076
      pz      :     9.955688  p :    29.838739
      px      :     9.937654
      py      :     9.945397
      dz2     :     6.282801  d :    31.363463
      dxz     :     6.270206
      dyz     :     6.247465
      dx2y2   :     6.299139
      dxy     :     6.263851
      f0      :     2.362344  f :    15.786496
      f+1     :     2.266079
      f-1     :     2.278615
      f+2     :     2.193675
      f-2     :     2.061075
      f+3     :     2.321009
      f-3     :     2.303699
  2 O s       :     3.898353  s :     3.898353
      pz      :     1.796296  p :     4.904916
      px      :     1.494563
      py      :     1.614057
      dz2     :     0.008322  d :     0.046799
      dxz     :     0.008888
      dyz     :     0.007525
      dx2y2   :     0.009020
      dxy     :     0.013044
      f0      :     0.000548  f :     0.004112
      f+1     :     0.000647
      f-1     :     0.000495
      f+2     :     0.000465
      f-2     :     0.000495
      f+3     :     0.000712
      f-3     :     0.000750
  3 O s       :     3.891026  s :     3.891026
      pz      :     1.494535  p :     4.928867
      px      :     1.769142
      py      :     1.665190
      dz2     :     0.008575  d :     0.046727
      dxz     :     0.008441
      dyz     :     0.013422
      dx2y2   :     0.007932
      dxy     :     0.008357
      f0      :     0.000627  f :     0.004050
      f+1     :     0.000663
      f-1     :     0.000814
      f+2     :     0.000520
      f-2     :     0.000628
      f+3     :     0.000422
      f-3     :     0.000375
  4 O s       :     3.899566  s :     3.899566
      pz      :     1.592872  p :     4.898074
      px      :     1.775037
      py      :     1.530165
      dz2     :     0.010145  d :     0.048329
      dxz     :     0.008222
      dyz     :     0.012983
      dx2y2   :     0.008325
      dxy     :     0.008654
      f0      :     0.000413  f :     0.003960
      f+1     :     0.000425
      f-1     :     0.000717
      f+2     :     0.000684
      f-2     :     0.000531
      f+3     :     0.000584
      f-3     :     0.000607
  5 O s       :     3.892519  s :     3.892519
      pz      :     1.769663  p :     4.904160
      px      :     1.596183
      py      :     1.538314
      dz2     :     0.008402  d :     0.047425
      dxz     :     0.008142
      dyz     :     0.009508
      dx2y2   :     0.009579
      dxy     :     0.011795
      f0      :     0.000546  f :     0.004038
      f+1     :     0.000480
      f-1     :     0.000566
      f+2     :     0.000482
      f-2     :     0.000542
      f+3     :     0.000625
      f-3     :     0.000796
  6 O s       :     3.899358  s :     3.899358
      pz      :     1.597798  p :     4.878345
      px      :     1.485008
      py      :     1.795539
      dz2     :     0.012066  d :     0.049050
      dxz     :     0.009444
      dyz     :     0.009105
      dx2y2   :     0.011719
      dxy     :     0.006715
      f0      :     0.000718  f :     0.003980
      f+1     :     0.000465
      f-1     :     0.000527
      f+2     :     0.000760
      f-2     :     0.000430
      f+3     :     0.000668
      f-3     :     0.000412
  7 H s       :     0.576536  s :     0.576536
      pz      :     0.018092  p :     0.049152
      px      :     0.015356
      py      :     0.015704
  8 H s       :     0.587274  s :     0.587274
      pz      :     0.015088  p :     0.049675
      px      :     0.018268
      py      :     0.016319
  9 H s       :     0.581659  s :     0.581659
      pz      :     0.014685  p :     0.049243
      px      :     0.017148
      py      :     0.017409
 10 H s       :     0.576523  s :     0.576523
      pz      :     0.016797  p :     0.048778
      px      :     0.015077
      py      :     0.016903
 11 H s       :     0.579176  s :     0.579176
      pz      :     0.015401  p :     0.049067
      px      :     0.018636
      py      :     0.015031
 12 H s       :     0.580847  s :     0.580847
      pz      :     0.015134  p :     0.049310
      px      :     0.017142
      py      :     0.017034


                     *******************************
                     * LOEWDIN POPULATION ANALYSIS *
                     *******************************

----------------------
LOEWDIN ATOMIC CHARGES
----------------------
   0 O :   -0.218236
   1 U :    0.062895
   2 O :   -0.194571
   3 O :   -0.214669
   4 O :   -0.208692
   5 O :   -0.201035
   6 O :   -0.191670
   7 H :    0.195452
   8 H :    0.191988
   9 H :    0.194934
  10 H :    0.195619
  11 H :    0.195607
  12 H :    0.192378

-------------------------------
LOEWDIN REDUCED ORBITAL CHARGES
-------------------------------
  0 O s       :     3.430140  s :     3.430140
      pz      :     1.668559  p :     4.712605
      px      :     1.519394
      py      :     1.524652
      dz2     :     0.013941  d :     0.070055
      dxz     :     0.009727
      dyz     :     0.007618
      dx2y2   :     0.023312
      dxy     :     0.015456
      f0      :     0.000601  f :     0.005436
      f+1     :     0.000893
      f-1     :     0.000536
      f+2     :     0.000519
      f-2     :     0.000616
      f+3     :     0.001536
      f-3     :     0.000734
  1 U s       :    12.121459  s :    12.121459
      pz      :    10.058783  p :    30.168180
      px      :    10.055395
      py      :    10.054002
      dz2     :     6.628370  d :    32.488196
      dxz     :     6.402518
      dyz     :     6.414729
      dx2y2   :     6.670313
      dxy     :     6.372266
      f0      :     2.640341  f :    17.159272
      f+1     :     2.463181
      f-1     :     2.495541
      f+2     :     2.372885
      f-2     :     2.093373
      f+3     :     2.560986
      f-3     :     2.532965
  2 O s       :     3.429294  s :     3.429294
      pz      :     1.670797  p :     4.688219
      px      :     1.471875
      py      :     1.545547
      dz2     :     0.014160  d :     0.071533
      dxz     :     0.010647
      dyz     :     0.007324
      dx2y2   :     0.021969
      dxy     :     0.017433
      f0      :     0.000586  f :     0.005525
      f+1     :     0.000958
      f-1     :     0.000546
      f+2     :     0.000556
      f-2     :     0.000540
      f+3     :     0.001298
      f-3     :     0.001042
  3 O s       :     3.431077  s :     3.431077
      pz      :     1.468227  p :     4.707804
      px      :     1.653757
      py      :     1.585820
      dz2     :     0.023052  d :     0.070370
      dxz     :     0.011596
      dyz     :     0.019331
      dx2y2   :     0.008002
      dxy     :     0.008388
      f0      :     0.001076  f :     0.005418
      f+1     :     0.000818
      f-1     :     0.001302
      f+2     :     0.000592
      f-2     :     0.000814
      f+3     :     0.000447
      f-3     :     0.000369
  4 O s       :     3.436995  s :     3.436995
      pz      :     1.535259  p :     4.695717
      px      :     1.658401
      py      :     1.502057
      dz2     :     0.013691  d :     0.070661
      dxz     :     0.007985
      dyz     :     0.017120
      dx2y2   :     0.022264
      dxy     :     0.009602
      f0      :     0.000487  f :     0.005319
      f+1     :     0.000460
      f-1     :     0.001184
      f+2     :     0.000886
      f-2     :     0.000617
      f+3     :     0.000635
      f-3     :     0.001049
  5 O s       :     3.432740  s :     3.432740
      pz      :     1.658882  p :     4.691961
      px      :     1.527508
      py      :     1.505570
      dz2     :     0.012440  d :     0.070910
      dxz     :     0.008187
      dyz     :     0.013506
      dx2y2   :     0.020781
      dxy     :     0.015995
      f0      :     0.000675  f :     0.005424
      f+1     :     0.000516
      f-1     :     0.000778
      f+2     :     0.000689
      f-2     :     0.000609
      f+3     :     0.000802
      f-3     :     0.001355
  6 O s       :     3.436586  s :     3.436586
      pz      :     1.565655  p :     4.677557
      px      :     1.440249
      py      :     1.671653
      dz2     :     0.026588  d :     0.072131
      dxz     :     0.012834
      dyz     :     0.012033
      dx2y2   :     0.014458
      dxy     :     0.006218
      f0      :     0.001391  f :     0.005395
      f+1     :     0.000622
      f-1     :     0.000782
      f+2     :     0.000968
      f-2     :     0.000424
      f+3     :     0.000833
      f-3     :     0.000375
  7 H s       :     0.635573  s :     0.635573
      pz      :     0.063111  p :     0.168975
      px      :     0.045699
      py      :     0.060165
  8 H s       :     0.639039  s :     0.639039
      pz      :     0.043070  p :     0.168973
      px      :     0.060809
      py      :     0.065094
  9 H s       :     0.636285  s :     0.636285
      pz      :     0.043667  p :     0.168781
      px      :     0.068287
      py      :     0.056827
 10 H s       :     0.635612  s :     0.635612
      pz      :     0.068463  p :     0.168769
      px      :     0.043713
      py      :     0.056593
 11 H s       :     0.635761  s :     0.635761
      pz      :     0.045967  p :     0.168632
      px      :     0.081793
      py      :     0.040873
 12 H s       :     0.638229  s :     0.638229
      pz      :     0.044175  p :     0.169392
      px      :     0.055353
      py      :     0.069864


                      *****************************
                      * MAYER POPULATION ANALYSIS *
                      *****************************

  NA   - Mulliken gross atomic population
  ZA   - Total nuclear charge
  QA   - Mulliken gross atomic charge
  VA   - Mayer's total valence
  BVA  - Mayer's bonded valence
  FA   - Mayer's free valence

  ATOM       NA         ZA         QA         VA         BVA        FA
  0 O      8.8783     8.0000    -0.8783     1.8762     1.3779     0.4982
  1 U     89.0908    92.0000     2.9092     5.0092     3.5150     1.4942
  2 O      8.8542     8.0000    -0.8542     1.9094     1.4071     0.5023
[...]
  6 O      8.9002     8.0000    -0.9002     1.6478     1.1513     0.4965
  7 H      0.6601     1.0000     0.3399     0.9141     0.8632     0.0509
  8 H      0.6598     1.0000     0.3402     0.9150     0.8641     0.0509
  9 H      0.6502     1.0000     0.3498     0.9086     0.8587     0.0499
 10 H      0.6493     1.0000     0.3507     0.8971     0.8445     0.0526
 11 H      0.6570     1.0000     0.3430     0.9135     0.8629     0.0506
 12 H      0.6600     1.0000     0.3400     0.9150     0.8641     0.0509

  Mayer bond orders larger than 0.1
B(  0-O ,  1-U ) :   0.2762 B(  0-O , 12-H ) :   0.8304 B(  1-U ,  2-O ) :   0.2740 
B(  1-U ,  3-O ) :   0.2986 B(  1-U ,  4-O ) :   0.5920 B(  1-U ,  5-O ) :   0.1533 
B(  1-U ,  6-O ) :   0.2442 B(  2-O ,  8-H ) :   0.8304 B(  3-O ,  7-H ) :   0.8307 
B(  4-O , 10-H ) :   0.8292 B(  5-O ,  9-H ) :   0.8262 B(  6-O , 11-H ) :   0.8289 



                *******************************************
                * RELAXED MP2 DENSITY POPULATION ANALYSIS *
                *******************************************

------------------------------------------------------------------------------
                           ORCA POPULATION ANALYSIS
------------------------------------------------------------------------------
Input electron density              ... /home/nikolayandreadi_2125/_scratch/MP2/UOH6.pmp2re
BaseName (.gbw .S,...)              ... /home/nikolayandreadi_2125/_scratch/MP2/UOH6

                    ********************************
                    * MULLIKEN POPULATION ANALYSIS *
                    ********************************

-----------------------
MULLIKEN ATOMIC CHARGES
-----------------------
   0 O :   -0.784171
   1 U :    2.646717
   2 O :   -0.783856
   3 O :   -0.784062
   4 O :   -0.743733
   5 O :   -0.735981
   6 O :   -0.767624
   7 H :    0.319727
   8 H :    0.319843
   9 H :    0.328557
  10 H :    0.342369
  11 H :    0.322463
  12 H :    0.319750
Sum of atomic charges:    0.0000000

--------------------------------
MULLIKEN REDUCED ORBITAL CHARGES
--------------------------------
  0 O s       :     3.911341  s :     3.911341
      pz      :     1.770551  p :     4.823643
      px      :     1.275694
      py      :     1.777398
      dz2     :     0.008485  d :     0.044330
      dxz     :     0.008447
      dyz     :     0.006172
      dx2y2   :     0.013066
      dxy     :     0.008161
      f0      :     0.000553  f :     0.004856
      f+1     :     0.000843
      f-1     :     0.000374
      f+2     :     0.000699
      f-2     :     0.000423
      f+3     :     0.001119
      f-3     :     0.000845
  1 U s       :    12.329149  s :    12.329149
      pz      :     9.896508  p :    29.691576
      px      :     9.883598
      py      :     9.911471
      dz2     :     6.270199  d :    31.515950
      dxz     :     6.314440
      dyz     :     6.305974
      dx2y2   :     6.288256
      dxy     :     6.337081
      f0      :     2.289113  f :    15.816608
      f+1     :     2.269368
      f-1     :     2.299962
      f+2     :     2.260372
      f-2     :     2.070169
      f+3     :     2.303133
      f-3     :     2.324490
  2 O s       :     3.911334  s :     3.911334
      pz      :     1.769925  p :     4.823321
      px      :     1.266701
      py      :     1.786695
      dz2     :     0.008477  d :     0.044340
      dxz     :     0.008410
      dyz     :     0.006179
      dx2y2   :     0.013298
      dxy     :     0.007976
      f0      :     0.000556  f :     0.004860
      f+1     :     0.000843
      f-1     :     0.000370
      f+2     :     0.000713
      f-2     :     0.000411
      f+3     :     0.001183
      f-3     :     0.000784
  3 O s       :     3.906320  s :     3.906320
      pz      :     1.284955  p :     4.829019
      px      :     1.777221
      py      :     1.766842
      dz2     :     0.014808  d :     0.043932
      dxz     :     0.008388
      dyz     :     0.008183
      dx2y2   :     0.006289
      dxy     :     0.006263
      f0      :     0.001468  f :     0.004791
      f+1     :     0.000903
      f-1     :     0.000843
      f+2     :     0.000440
      f-2     :     0.000442
      f+3     :     0.000348
      f-3     :     0.000348
  4 O s       :     3.901518  s :     3.901518
      pz      :     1.523376  p :     4.790832
      px      :     1.749098
      py      :     1.518358
      dz2     :     0.010486  d :     0.047538
      dxz     :     0.007862
      dyz     :     0.012819
      dx2y2   :     0.008419
      dxy     :     0.007951
      f0      :     0.000405  f :     0.003846
      f+1     :     0.000405
      f-1     :     0.000747
      f+2     :     0.000681
      f-2     :     0.000470
      f+3     :     0.000549
      f-3     :     0.000589
  5 O s       :     3.890396  s :     3.890396
      pz      :     1.762278  p :     4.795393
      px      :     1.782908
      py      :     1.250207
      dz2     :     0.008360  d :     0.045043
      dxz     :     0.006206
      dyz     :     0.008776
      dx2y2   :     0.013307
      dxy     :     0.008394
      f0      :     0.000575  f :     0.005149
      f+1     :     0.000374
      f-1     :     0.000896
      f+2     :     0.000754
      f-2     :     0.000417
      f+3     :     0.000871
      f-3     :     0.001262
  6 O s       :     3.907392  s :     3.907392
      pz      :     1.267387  p :     4.810899
      px      :     1.766322
      py      :     1.777190
      dz2     :     0.014939  d :     0.044386
      dxz     :     0.008707
      dyz     :     0.008365
      dx2y2   :     0.006184
      dxy     :     0.006191
      f0      :     0.001574  f :     0.004947
      f+1     :     0.000967
      f-1     :     0.000860
      f+2     :     0.000428
      f-2     :     0.000427
      f+3     :     0.000346
      f-3     :     0.000346
  7 H s       :     0.628873  s :     0.628873
      pz      :     0.019468  p :     0.051400
      px      :     0.016255
      py      :     0.015676
  8 H s       :     0.628507  s :     0.628507
      pz      :     0.016013  p :     0.051650
      px      :     0.019673
      py      :     0.015964
  9 H s       :     0.619841  s :     0.619841
      pz      :     0.015719  p :     0.051602
      px      :     0.016027
      py      :     0.019857
 10 H s       :     0.607941  s :     0.607941
      pz      :     0.016461  p :     0.049690
      px      :     0.016278
      py      :     0.016951
 11 H s       :     0.626126  s :     0.626126
      pz      :     0.019696  p :     0.051411
      px      :     0.015980
      py      :     0.015735
 12 H s       :     0.628596  s :     0.628596
      pz      :     0.016033  p :     0.051653
      px      :     0.019606
      py      :     0.016014


                     *******************************
                     * LOEWDIN POPULATION ANALYSIS *
                     *******************************

----------------------
LOEWDIN ATOMIC CHARGES
----------------------
   0 O :   -0.120661
   1 U :   -0.363359
   2 O :   -0.120229
   3 O :   -0.130754
   4 O :   -0.157508
   5 O :   -0.093766
   6 O :   -0.106072
   7 H :    0.178563
   8 H :    0.180026
   9 H :    0.184406
  10 H :    0.186349
  11 H :    0.183072
  12 H :    0.179935

-------------------------------
LOEWDIN REDUCED ORBITAL CHARGES
-------------------------------
  0 O s       :     3.398013  s :     3.398013
      pz      :     1.629424  p :     4.628257
      px      :     1.365081
      py      :     1.633751
      dz2     :     0.016886  d :     0.087906
      dxz     :     0.013392
      dyz     :     0.006282
      dx2y2   :     0.040078
      dxy     :     0.011269
      f0      :     0.000631  f :     0.006484
      f+1     :     0.001301
      f-1     :     0.000380
      f+2     :     0.000830
      f-2     :     0.000431
      f+3     :     0.001998
      f-3     :     0.000912
  1 U s       :    12.083537  s :    12.083537
      pz      :    10.026021  p :    30.095395
      px      :    10.033451
      py      :    10.035923
      dz2     :     6.617460  d :    32.687359
      dxz     :     6.487235
      dyz     :     6.463938
      dx2y2   :     6.641631
      dxy     :     6.477094
      f0      :     2.640149  f :    17.497068
      f+1     :     2.534084
      f-1     :     2.550116
      f+2     :     2.455670
      f-2     :     2.110031
      f+3     :     2.583420
      f-3     :     2.623598
  2 O s       :     3.397825  s :     3.397825
      pz      :     1.628621  p :     4.627831
      px      :     1.360295
      py      :     1.638915
      dz2     :     0.017095  d :     0.088078
      dxz     :     0.012978
      dyz     :     0.006271
      dx2y2   :     0.040606
      dxy     :     0.011129
      f0      :     0.000627  f :     0.006496
      f+1     :     0.001314
      f-1     :     0.000377
      f+2     :     0.000826
      f-2     :     0.000423
      f+3     :     0.002108
      f-3     :     0.000821
  3 O s       :     3.401931  s :     3.401931
      pz      :     1.370786  p :     4.636094
      px      :     1.640212
      py      :     1.625097
      dz2     :     0.046699  d :     0.086397
      dxz     :     0.013442
      dyz     :     0.013125
      dx2y2   :     0.006632
      dxy     :     0.006499
      f0      :     0.002568  f :     0.006331
      f+1     :     0.001118
      f-1     :     0.001015
      f+2     :     0.000459
      f-2     :     0.000468
      f+3     :     0.000352
      f-3     :     0.000352
  4 O s       :     3.451758  s :     3.451758
      pz      :     1.499681  p :     4.629824
      px      :     1.638416
      py      :     1.491727
      dz2     :     0.014335  d :     0.070675
      dxz     :     0.007364
      dyz     :     0.018145
      dx2y2   :     0.021593
      dxy     :     0.009239
      f0      :     0.000466  f :     0.005250
      f+1     :     0.000434
      f-1     :     0.001295
      f+2     :     0.000947
      f-2     :     0.000533
      f+3     :     0.000607
      f-3     :     0.000968
  5 O s       :     3.386078  s :     3.386078
      pz      :     1.612853  p :     4.603017
      px      :     1.631880
      py      :     1.358284
      dz2     :     0.018851  d :     0.097494
      dxz     :     0.006287
      dyz     :     0.014009
      dx2y2   :     0.046537
      dxy     :     0.011810
      f0      :     0.000662  f :     0.007177
      f+1     :     0.000382
      f-1     :     0.001493
      f+2     :     0.000891
      f-2     :     0.000429
      f+3     :     0.000922
      f-3     :     0.002396
  6 O s       :     3.395177  s :     3.395177
      pz      :     1.363795  p :     4.613687
      px      :     1.624881
      py      :     1.625010
      dz2     :     0.051896  d :     0.090528
      dxz     :     0.014338
      dyz     :     0.011608
      dx2y2   :     0.006395
      dxy     :     0.006291
      f0      :     0.002940  f :     0.006680
      f+1     :     0.001235
      f-1     :     0.000932
      f+2     :     0.000438
      f-2     :     0.000436
      f+3     :     0.000349
      f-3     :     0.000349
  7 H s       :     0.651224  s :     0.651224
      pz      :     0.084510  p :     0.170213
      px      :     0.043733
      py      :     0.041970
  8 H s       :     0.649574  s :     0.649574
      pz      :     0.042980  p :     0.170401
      px      :     0.085286
      py      :     0.042135
  9 H s       :     0.645144  s :     0.645144
      pz      :     0.042039  p :     0.170451
      px      :     0.042254
      py      :     0.086158
 10 H s       :     0.644736  s :     0.644736
      pz      :     0.070540  p :     0.168915
      px      :     0.042811
      py      :     0.055565
 11 H s       :     0.647237  s :     0.647237
      pz      :     0.084702  p :     0.169692
      px      :     0.043070
      py      :     0.041920
 12 H s       :     0.649666  s :     0.649666
      pz      :     0.042818  p :     0.170399
      px      :     0.084529
      py      :     0.043052


                      *****************************
                      * MAYER POPULATION ANALYSIS *
                      *****************************

  NA   - Mulliken gross atomic population
  ZA   - Total nuclear charge
  QA   - Mulliken gross atomic charge
  VA   - Mayer's total valence
  BVA  - Mayer's bonded valence
  FA   - Mayer's free valence

  ATOM       NA         ZA         QA         VA         BVA        FA
  0 O      8.7842     8.0000    -0.7842     1.8281     1.3576     0.4704
  1 U     89.3533    92.0000     2.6467     4.2505     2.9810     1.2694
  2 O      8.7839     8.0000    -0.7839     1.8263     1.3559     0.4705
  3 O      8.7841     8.0000    -0.7841     1.8272     1.3586     0.4686
  4 O      8.7437     8.0000    -0.7437     2.1161     1.6450     0.4710
  5 O      8.7360     8.0000    -0.7360     1.7068     1.2360     0.4708
  6 O      8.7676     8.0000    -0.7676     1.8035     1.3318     0.4717
  7 H      0.6803     1.0000     0.3197     0.9220     0.8715     0.0504
  8 H      0.6802     1.0000     0.3198     0.9234     0.8730     0.0504
  9 H      0.6714     1.0000     0.3286     0.9183     0.8691     0.0493
 10 H      0.6576     1.0000     0.3424     0.8955     0.8428     0.0527
 11 H      0.6775     1.0000     0.3225     0.9226     0.8726     0.0500
 12 H      0.6802     1.0000     0.3198     0.9234     0.8729     0.0504

  Mayer bond orders larger than 0.1
B(  0-O ,  1-U ) :   0.4358 B(  0-O , 12-H ) :   0.8326 B(  1-U ,  2-O ) :   0.4330 
B(  1-U ,  3-O ) :   0.4667 B(  1-U ,  4-O ) :   0.7636 B(  1-U ,  5-O ) :   0.2945 
B(  1-U ,  6-O ) :   0.3952 B(  2-O ,  8-H ) :   0.8326 B(  3-O ,  7-H ) :   0.8328 
B(  4-O , 10-H ) :   0.8267 B(  5-O ,  9-H ) :   0.8304 B(  6-O , 11-H ) :   0.8315 



----------------------------------
MP2 DERIVATIVE INTEGRAL GENERATION
----------------------------------


Input Wavefunction Amplitudes       ... /home/nikolayandreadi_2125/_scratch/MP2/UOH6.mp2tsaa.tmp.proc19
Input Correlated Electron Density   ... /home/nikolayandreadi_2125/_scratch/MP2/UOH6.pmp2re
Input Energy Weighted Density       ... /home/nikolayandreadi_2125/_scratch/MP2/UOH6.wmp2.tmp
Input SCF Electron Density          ... /home/nikolayandreadi_2125/_scratch/MP2/UOH6.scfp.tmp

One-Electron Terms    ...
                        ... One-Electron Terms done
Prescreening matrices              ... done

Batch handling in the gradient evaluation:
Memory available                      ... 31500.0 MB
Memory per occupied orbital in Q2     ...   37.7 MB
Memory per occupied orbital in Q3     ...    0.1 MB
Total memory requirement per |i>      ...   37.9 MB
Max. Number of orbitals possible      ...    832
Number of orbitals treated per batch  ...     33
Number of batches to be done          ...      1
Batch   0: i=   40 ...    72

---------------------------------------
MP2 TOTAL ENERGY:   -28404.773553968 Eh
---------------------------------------

-----------------------------------
NORM OF THE MP2 GRADIENT:  0.000919
-----------------------------------

-------------------------   --------------------
FINAL SINGLE POINT ENERGY    -28404.773553968091
-------------------------   --------------------

                                *** OPTIMIZATION RUN DONE ***

                            ***************************************
                            *     ORCA property calculations      *
                            ***************************************

                                    ---------------------
                                    Active property flags
                                    ---------------------
   (+) Dipole Moment


------------------------------------------------------------------------------
                       ORCA ELECTRIC PROPERTIES CALCULATION
------------------------------------------------------------------------------

Dipole Moment Calculation                       ... on
Quadrupole Moment Calculation                   ... off
Polarizability Calculation                      ... off
GBWName                                         ... /home/nikolayandreadi_2125/_scratch/MP2/UOH6.gbw
Electron density file                           ... /home/nikolayandreadi_2125/_scratch/MP2/UOH6.scfp.tmp
The origin for moment calculation is the CENTER OF MASS  = (10.902855,  0.859735  5.345108)

-------------
DIPOLE MOMENT
-------------
                                X             Y             Z
Electronic contribution:      0.15492      -1.51117       0.33160
Nuclear contribution   :     -0.17178       0.73617      -0.87059
                        -----------------------------------------
Total Dipole Moment    :     -0.01686      -0.77500      -0.53899
                        -----------------------------------------
Magnitude (a.u.)       :      0.94414
Magnitude (Debye)      :      2.39983


                         *** MP2 UNRELAXED DENSITY ***

------------------------------------------------------------------------------
                       ORCA ELECTRIC PROPERTIES CALCULATION
------------------------------------------------------------------------------

Dipole Moment Calculation                       ... on
Quadrupole Moment Calculation                   ... off
Polarizability Calculation                      ... off
GBWName                                         ... /home/nikolayandreadi_2125/_scratch/MP2/UOH6.gbw
Electron density file                           ... /home/nikolayandreadi_2125/_scratch/MP2/UOH6.pmp2ur
The origin for moment calculation is the CENTER OF MASS  = (10.902855,  0.859735  5.345108)

-------------
DIPOLE MOMENT
-------------
                                X             Y             Z
Electronic contribution:      0.15603      -1.49290       0.34637
Nuclear contribution   :     -0.17178       0.73617      -0.87059
                        -----------------------------------------
Total Dipole Moment    :     -0.01574      -0.75673      -0.52421
                        -----------------------------------------
Magnitude (a.u.)       :      0.92070
Magnitude (Debye)      :      2.34022


                           *** MP2 RELAXED DENSITY ***

------------------------------------------------------------------------------
                       ORCA ELECTRIC PROPERTIES CALCULATION
------------------------------------------------------------------------------

Dipole Moment Calculation                       ... on
Quadrupole Moment Calculation                   ... off
Polarizability Calculation                      ... off
GBWName                                         ... /home/nikolayandreadi_2125/_scratch/MP2/UOH6.gbw
Electron density file                           ... /home/nikolayandreadi_2125/_scratch/MP2/UOH6.pmp2re
The origin for moment calculation is the CENTER OF MASS  = (10.902855,  0.859735  5.345108)

-------------
DIPOLE MOMENT
-------------
                                X             Y             Z
Electronic contribution:      0.15447      -1.42022       0.37049
Nuclear contribution   :     -0.17178       0.73617      -0.87059
                        -----------------------------------------
Total Dipole Moment    :     -0.01731      -0.68405      -0.50009
                        -----------------------------------------
Magnitude (a.u.)       :      0.84754
Magnitude (Debye)      :      2.15427


Timings for individual modules:

Sum of individual times         ...    28889.476 sec (= 481.491 min)
GTO integral calculation        ...      115.844 sec (=   1.931 min)   0.4 %
Relativistic integrals          ...       44.470 sec (=   0.741 min)   0.2 %
SCF iterations                  ...     4975.030 sec (=  82.917 min)  17.2 %
MP2 module                      ...    23750.250 sec (= 395.838 min)  82.2 %
Geometry relaxation             ...        3.883 sec (=   0.065 min)   0.0 %
                             ****ORCA TERMINATED NORMALLY****
TOTAL RUN TIME: 0 days 8 hours 1 minutes 39 seconds 63 msec
